
.Version 9.10.3 of ABINIT 
.(MPI version, prepared for a x86_64_linux_gnu7.3 computer) 

.Copyright (C) 1998-2022 ABINIT group . 
 ABINIT comes with ABSOLUTELY NO WARRANTY.
 It is free software, and you are welcome to redistribute it
 under certain conditions (GNU General Public License,
 see ~abinit/COPYING or http://www.gnu.org/copyleft/gpl.txt).

 ABINIT is a project of the Universite Catholique de Louvain,
 Corning Inc. and other collaborators, see ~abinit/doc/developers/contributors.txt .
 Please read https://docs.abinit.org/theory/acknowledgments for suggested
 acknowledgments of the ABINIT effort.
 For more information, see https://www.abinit.org .

.Starting date : Mon  2 Jun 2025.
- ( at 00h49 )
  
- input  file    -> run.abi
- output file    -> run.abo
- root for input  files -> runi
- root for output files -> runo

================================================================================

 importxyz : Identified token XYZFILE, referring to file ../structures/al28o1s-181.xyz

================================================================================


 Symmetries : space group Pm (#  6); Bravais mP (primitive monocl.)
================================================================================
 Values of the parameters that define the memory need of the present run
     intxc =       0    ionmov =       2      iscf =      17    lmnmax =       6
     lnmax =       6     mgfft =     480  mpssoang =       3    mqgrid =    6390
     natom =      29  nloc_mem =       1    nspden =       1   nspinor =       1
    nsppol =       1      nsym =       2    n1xccc =    2501    ntypat =       2
    occopt =       7   xclevel =       2
-    mband =          82        mffmem =           1         mkmem =           1
       mpw =      100940          nfft =     1658880          nkpt =          18
 For the susceptibility and dielectric matrices, or tddft :
   mgfft =       270  nbnd_in_blk=    11    nfft =    311040     npw =      2013
================================================================================
P This job should need less than                     851.568 Mbytes of memory.
  Rough estimation (10% accuracy) of disk space for files :
_ WF disk file :   2273.370 Mbytes ; DEN or POT disk file :     12.658 Mbytes.
================================================================================

--------------------------------------------------------------------------------
------------- Echo of variables that govern the present computation ------------
--------------------------------------------------------------------------------
-
- outvars: echo of selected default values                                      
-   iomode0 =  3 , fftalg0 =512 , wfoptalg0 =  0
-
- outvars: echo of global parameters not present in the input file              
-  max_nthreads =    1
-
 -outvars: echo values of preprocessed input variables --------
            acell      9.3761834869E+00  1.0826684213E+01  8.3211636133E+01 Bohr
              amu      2.69815390E+01  1.59994000E+01
          chkprim           0
           dielng      5.00000000E+00 Bohr
           diemac      1.00000000E+03
           diemix      5.00000000E-01
          dilatmx      1.15000000E+00
             ecut      3.00000000E+01 Hartree
           ecutsm      5.00000000E-01 Hartree
           enunit           2
-          fftalg         512
           iatfix        1    2    3    4    5    6    7    8    9   10
                        11   12   13   14   15   16   17   18   19   20
                        21   22   23   24   25   26   27   28
          iatfixx       29
          iatfixy       29
           ionmov           2
           iprcel          45
             iscf          17
              ixc          11
              kpt      8.33333333E-02  8.33333333E-02  2.50000000E-01
                       2.50000000E-01  8.33333333E-02  2.50000000E-01
                       4.16666667E-01  8.33333333E-02  2.50000000E-01
                      -4.16666667E-01  8.33333333E-02  2.50000000E-01
                      -2.50000000E-01  8.33333333E-02  2.50000000E-01
                      -8.33333333E-02  8.33333333E-02  2.50000000E-01
                       8.33333333E-02  2.50000000E-01  2.50000000E-01
                       2.50000000E-01  2.50000000E-01  2.50000000E-01
                       4.16666667E-01  2.50000000E-01  2.50000000E-01
                      -4.16666667E-01  2.50000000E-01  2.50000000E-01
                      -2.50000000E-01  2.50000000E-01  2.50000000E-01
                      -8.33333333E-02  2.50000000E-01  2.50000000E-01
                       8.33333333E-02  4.16666667E-01  2.50000000E-01
                       2.50000000E-01  4.16666667E-01  2.50000000E-01
                       4.16666667E-01  4.16666667E-01  2.50000000E-01
                      -4.16666667E-01  4.16666667E-01  2.50000000E-01
                      -2.50000000E-01  4.16666667E-01  2.50000000E-01
                      -8.33333333E-02  4.16666667E-01  2.50000000E-01
         kptrlatt        6    0    0      0    6    0      0    0    2
          kptrlen      5.62571009E+01
P           mkmem           1
           natfix          28
          natfixx           1
          natfixy           1
            natom          29
            nband          82
            ngfft          54      64     480
             nkpt          18
            nstep         300
             nsym           2
            ntime         300
           ntypat           2
              occ      2.000000  2.000000  2.000000  2.000000  2.000000  2.000000
                       2.000000  2.000000  2.000000  2.000000  2.000000  2.000000
                       2.000000  2.000000  2.000000  2.000000  2.000000  2.000000
                       2.000000  2.000000  2.000000  2.000000  2.000000  2.000000
                       2.000000  2.000000  2.000000  2.000000  2.000000  2.000000
                       2.000000  2.000000  2.000000  2.000000  2.000000  2.000000
                       2.000000  2.000000  2.000000  2.000000  2.000000  2.000000
                       2.000000  2.000000  2.000000  0.000000  0.000000  0.000000
                       0.000000  0.000000  0.000000  0.000000  0.000000  0.000000
                       0.000000  0.000000  0.000000  0.000000  0.000000  0.000000
                       0.000000  0.000000  0.000000  0.000000  0.000000  0.000000
                       0.000000  0.000000  0.000000  0.000000  0.000000  0.000000
                       0.000000  0.000000  0.000000  0.000000  0.000000  0.000000
                       0.000000  0.000000  0.000000  0.000000
                       2.000000  2.000000  2.000000  2.000000  2.000000  2.000000
                       2.000000  2.000000  2.000000  2.000000  2.000000  2.000000
                       2.000000  2.000000  2.000000  2.000000  2.000000  2.000000
                       2.000000  2.000000  2.000000  2.000000  2.000000  2.000000
                       2.000000  2.000000  2.000000  2.000000  2.000000  2.000000
                       2.000000  2.000000  2.000000  2.000000  2.000000  2.000000
                       2.000000  2.000000  2.000000  2.000000  2.000000  2.000000
                       2.000000  2.000000  2.000000  0.000000  0.000000  0.000000
                       0.000000  0.000000  0.000000  0.000000  0.000000  0.000000
                       0.000000  0.000000  0.000000  0.000000  0.000000  0.000000
                       0.000000  0.000000  0.000000  0.000000  0.000000  0.000000
                       0.000000  0.000000  0.000000  0.000000  0.000000  0.000000
                       0.000000  0.000000  0.000000  0.000000  0.000000  0.000000
                       0.000000  0.000000  0.000000  0.000000
                       2.000000  2.000000  2.000000  2.000000  2.000000  2.000000
                       2.000000  2.000000  2.000000  2.000000  2.000000  2.000000
                       2.000000  2.000000  2.000000  2.000000  2.000000  2.000000
                       2.000000  2.000000  2.000000  2.000000  2.000000  2.000000
                       2.000000  2.000000  2.000000  2.000000  2.000000  2.000000
                       2.000000  2.000000  2.000000  2.000000  2.000000  2.000000
                       2.000000  2.000000  2.000000  2.000000  2.000000  2.000000
                       2.000000  2.000000  2.000000  0.000000  0.000000  0.000000
                       0.000000  0.000000  0.000000  0.000000  0.000000  0.000000
                       0.000000  0.000000  0.000000  0.000000  0.000000  0.000000
                       0.000000  0.000000  0.000000  0.000000  0.000000  0.000000
                       0.000000  0.000000  0.000000  0.000000  0.000000  0.000000
                       0.000000  0.000000  0.000000  0.000000  0.000000  0.000000
                       0.000000  0.000000  0.000000  0.000000
                       2.000000  2.000000  2.000000  2.000000  2.000000  2.000000
                       2.000000  2.000000  2.000000  2.000000  2.000000  2.000000
                       2.000000  2.000000  2.000000  2.000000  2.000000  2.000000
                       2.000000  2.000000  2.000000  2.000000  2.000000  2.000000
                       2.000000  2.000000  2.000000  2.000000  2.000000  2.000000
                       2.000000  2.000000  2.000000  2.000000  2.000000  2.000000
                       2.000000  2.000000  2.000000  2.000000  2.000000  2.000000
                       2.000000  2.000000  2.000000  0.000000  0.000000  0.000000
                       0.000000  0.000000  0.000000  0.000000  0.000000  0.000000
                       0.000000  0.000000  0.000000  0.000000  0.000000  0.000000
                       0.000000  0.000000  0.000000  0.000000  0.000000  0.000000
                       0.000000  0.000000  0.000000  0.000000  0.000000  0.000000
                       0.000000  0.000000  0.000000  0.000000  0.000000  0.000000
                       0.000000  0.000000  0.000000  0.000000
                       2.000000  2.000000  2.000000  2.000000  2.000000  2.000000
                       2.000000  2.000000  2.000000  2.000000  2.000000  2.000000
                       2.000000  2.000000  2.000000  2.000000  2.000000  2.000000
                       2.000000  2.000000  2.000000  2.000000  2.000000  2.000000
                       2.000000  2.000000  2.000000  2.000000  2.000000  2.000000
                       2.000000  2.000000  2.000000  2.000000  2.000000  2.000000
                       2.000000  2.000000  2.000000  2.000000  2.000000  2.000000
                       2.000000  2.000000  2.000000  0.000000  0.000000  0.000000
                       0.000000  0.000000  0.000000  0.000000  0.000000  0.000000
                       0.000000  0.000000  0.000000  0.000000  0.000000  0.000000
                       0.000000  0.000000  0.000000  0.000000  0.000000  0.000000
                       0.000000  0.000000  0.000000  0.000000  0.000000  0.000000
                       0.000000  0.000000  0.000000  0.000000  0.000000  0.000000
                       0.000000  0.000000  0.000000  0.000000
                       2.000000  2.000000  2.000000  2.000000  2.000000  2.000000
                       2.000000  2.000000  2.000000  2.000000  2.000000  2.000000
                       2.000000  2.000000  2.000000  2.000000  2.000000  2.000000
                       2.000000  2.000000  2.000000  2.000000  2.000000  2.000000
                       2.000000  2.000000  2.000000  2.000000  2.000000  2.000000
                       2.000000  2.000000  2.000000  2.000000  2.000000  2.000000
                       2.000000  2.000000  2.000000  2.000000  2.000000  2.000000
                       2.000000  2.000000  2.000000  0.000000  0.000000  0.000000
                       0.000000  0.000000  0.000000  0.000000  0.000000  0.000000
                       0.000000  0.000000  0.000000  0.000000  0.000000  0.000000
                       0.000000  0.000000  0.000000  0.000000  0.000000  0.000000
                       0.000000  0.000000  0.000000  0.000000  0.000000  0.000000
                       0.000000  0.000000  0.000000  0.000000  0.000000  0.000000
                       0.000000  0.000000  0.000000  0.000000
                       2.000000  2.000000  2.000000  2.000000  2.000000  2.000000
                       2.000000  2.000000  2.000000  2.000000  2.000000  2.000000
                       2.000000  2.000000  2.000000  2.000000  2.000000  2.000000
                       2.000000  2.000000  2.000000  2.000000  2.000000  2.000000
                       2.000000  2.000000  2.000000  2.000000  2.000000  2.000000
                       2.000000  2.000000  2.000000  2.000000  2.000000  2.000000
                       2.000000  2.000000  2.000000  2.000000  2.000000  2.000000
                       2.000000  2.000000  2.000000  0.000000  0.000000  0.000000
                       0.000000  0.000000  0.000000  0.000000  0.000000  0.000000
                       0.000000  0.000000  0.000000  0.000000  0.000000  0.000000
                       0.000000  0.000000  0.000000  0.000000  0.000000  0.000000
                       0.000000  0.000000  0.000000  0.000000  0.000000  0.000000
                       0.000000  0.000000  0.000000  0.000000  0.000000  0.000000
                       0.000000  0.000000  0.000000  0.000000
                       2.000000  2.000000  2.000000  2.000000  2.000000  2.000000
                       2.000000  2.000000  2.000000  2.000000  2.000000  2.000000
                       2.000000  2.000000  2.000000  2.000000  2.000000  2.000000
                       2.000000  2.000000  2.000000  2.000000  2.000000  2.000000
                       2.000000  2.000000  2.000000  2.000000  2.000000  2.000000
                       2.000000  2.000000  2.000000  2.000000  2.000000  2.000000
                       2.000000  2.000000  2.000000  2.000000  2.000000  2.000000
                       2.000000  2.000000  2.000000  0.000000  0.000000  0.000000
                       0.000000  0.000000  0.000000  0.000000  0.000000  0.000000
                       0.000000  0.000000  0.000000  0.000000  0.000000  0.000000
                       0.000000  0.000000  0.000000  0.000000  0.000000  0.000000
                       0.000000  0.000000  0.000000  0.000000  0.000000  0.000000
                       0.000000  0.000000  0.000000  0.000000  0.000000  0.000000
                       0.000000  0.000000  0.000000  0.000000
                       2.000000  2.000000  2.000000  2.000000  2.000000  2.000000
                       2.000000  2.000000  2.000000  2.000000  2.000000  2.000000
                       2.000000  2.000000  2.000000  2.000000  2.000000  2.000000
                       2.000000  2.000000  2.000000  2.000000  2.000000  2.000000
                       2.000000  2.000000  2.000000  2.000000  2.000000  2.000000
                       2.000000  2.000000  2.000000  2.000000  2.000000  2.000000
                       2.000000  2.000000  2.000000  2.000000  2.000000  2.000000
                       2.000000  2.000000  2.000000  0.000000  0.000000  0.000000
                       0.000000  0.000000  0.000000  0.000000  0.000000  0.000000
                       0.000000  0.000000  0.000000  0.000000  0.000000  0.000000
                       0.000000  0.000000  0.000000  0.000000  0.000000  0.000000
                       0.000000  0.000000  0.000000  0.000000  0.000000  0.000000
                       0.000000  0.000000  0.000000  0.000000  0.000000  0.000000
                       0.000000  0.000000  0.000000  0.000000
                       2.000000  2.000000  2.000000  2.000000  2.000000  2.000000
                       2.000000  2.000000  2.000000  2.000000  2.000000  2.000000
                       2.000000  2.000000  2.000000  2.000000  2.000000  2.000000
                       2.000000  2.000000  2.000000  2.000000  2.000000  2.000000
                       2.000000  2.000000  2.000000  2.000000  2.000000  2.000000
                       2.000000  2.000000  2.000000  2.000000  2.000000  2.000000
                       2.000000  2.000000  2.000000  2.000000  2.000000  2.000000
                       2.000000  2.000000  2.000000  0.000000  0.000000  0.000000
                       0.000000  0.000000  0.000000  0.000000  0.000000  0.000000
                       0.000000  0.000000  0.000000  0.000000  0.000000  0.000000
                       0.000000  0.000000  0.000000  0.000000  0.000000  0.000000
                       0.000000  0.000000  0.000000  0.000000  0.000000  0.000000
                       0.000000  0.000000  0.000000  0.000000  0.000000  0.000000
                       0.000000  0.000000  0.000000  0.000000
                       2.000000  2.000000  2.000000  2.000000  2.000000  2.000000
                       2.000000  2.000000  2.000000  2.000000  2.000000  2.000000
                       2.000000  2.000000  2.000000  2.000000  2.000000  2.000000
                       2.000000  2.000000  2.000000  2.000000  2.000000  2.000000
                       2.000000  2.000000  2.000000  2.000000  2.000000  2.000000
                       2.000000  2.000000  2.000000  2.000000  2.000000  2.000000
                       2.000000  2.000000  2.000000  2.000000  2.000000  2.000000
                       2.000000  2.000000  2.000000  0.000000  0.000000  0.000000
                       0.000000  0.000000  0.000000  0.000000  0.000000  0.000000
                       0.000000  0.000000  0.000000  0.000000  0.000000  0.000000
                       0.000000  0.000000  0.000000  0.000000  0.000000  0.000000
                       0.000000  0.000000  0.000000  0.000000  0.000000  0.000000
                       0.000000  0.000000  0.000000  0.000000  0.000000  0.000000
                       0.000000  0.000000  0.000000  0.000000
                       2.000000  2.000000  2.000000  2.000000  2.000000  2.000000
                       2.000000  2.000000  2.000000  2.000000  2.000000  2.000000
                       2.000000  2.000000  2.000000  2.000000  2.000000  2.000000
                       2.000000  2.000000  2.000000  2.000000  2.000000  2.000000
                       2.000000  2.000000  2.000000  2.000000  2.000000  2.000000
                       2.000000  2.000000  2.000000  2.000000  2.000000  2.000000
                       2.000000  2.000000  2.000000  2.000000  2.000000  2.000000
                       2.000000  2.000000  2.000000  0.000000  0.000000  0.000000
                       0.000000  0.000000  0.000000  0.000000  0.000000  0.000000
                       0.000000  0.000000  0.000000  0.000000  0.000000  0.000000
                       0.000000  0.000000  0.000000  0.000000  0.000000  0.000000
                       0.000000  0.000000  0.000000  0.000000  0.000000  0.000000
                       0.000000  0.000000  0.000000  0.000000  0.000000  0.000000
                       0.000000  0.000000  0.000000  0.000000
                       2.000000  2.000000  2.000000  2.000000  2.000000  2.000000
                       2.000000  2.000000  2.000000  2.000000  2.000000  2.000000
                       2.000000  2.000000  2.000000  2.000000  2.000000  2.000000
                       2.000000  2.000000  2.000000  2.000000  2.000000  2.000000
                       2.000000  2.000000  2.000000  2.000000  2.000000  2.000000
                       2.000000  2.000000  2.000000  2.000000  2.000000  2.000000
                       2.000000  2.000000  2.000000  2.000000  2.000000  2.000000
                       2.000000  2.000000  2.000000  0.000000  0.000000  0.000000
                       0.000000  0.000000  0.000000  0.000000  0.000000  0.000000
                       0.000000  0.000000  0.000000  0.000000  0.000000  0.000000
                       0.000000  0.000000  0.000000  0.000000  0.000000  0.000000
                       0.000000  0.000000  0.000000  0.000000  0.000000  0.000000
                       0.000000  0.000000  0.000000  0.000000  0.000000  0.000000
                       0.000000  0.000000  0.000000  0.000000
                       2.000000  2.000000  2.000000  2.000000  2.000000  2.000000
                       2.000000  2.000000  2.000000  2.000000  2.000000  2.000000
                       2.000000  2.000000  2.000000  2.000000  2.000000  2.000000
                       2.000000  2.000000  2.000000  2.000000  2.000000  2.000000
                       2.000000  2.000000  2.000000  2.000000  2.000000  2.000000
                       2.000000  2.000000  2.000000  2.000000  2.000000  2.000000
                       2.000000  2.000000  2.000000  2.000000  2.000000  2.000000
                       2.000000  2.000000  2.000000  0.000000  0.000000  0.000000
                       0.000000  0.000000  0.000000  0.000000  0.000000  0.000000
                       0.000000  0.000000  0.000000  0.000000  0.000000  0.000000
                       0.000000  0.000000  0.000000  0.000000  0.000000  0.000000
                       0.000000  0.000000  0.000000  0.000000  0.000000  0.000000
                       0.000000  0.000000  0.000000  0.000000  0.000000  0.000000
                       0.000000  0.000000  0.000000  0.000000
                       2.000000  2.000000  2.000000  2.000000  2.000000  2.000000
                       2.000000  2.000000  2.000000  2.000000  2.000000  2.000000
                       2.000000  2.000000  2.000000  2.000000  2.000000  2.000000
                       2.000000  2.000000  2.000000  2.000000  2.000000  2.000000
                       2.000000  2.000000  2.000000  2.000000  2.000000  2.000000
                       2.000000  2.000000  2.000000  2.000000  2.000000  2.000000
                       2.000000  2.000000  2.000000  2.000000  2.000000  2.000000
                       2.000000  2.000000  2.000000  0.000000  0.000000  0.000000
                       0.000000  0.000000  0.000000  0.000000  0.000000  0.000000
                       0.000000  0.000000  0.000000  0.000000  0.000000  0.000000
                       0.000000  0.000000  0.000000  0.000000  0.000000  0.000000
                       0.000000  0.000000  0.000000  0.000000  0.000000  0.000000
                       0.000000  0.000000  0.000000  0.000000  0.000000  0.000000
                       0.000000  0.000000  0.000000  0.000000
                       2.000000  2.000000  2.000000  2.000000  2.000000  2.000000
                       2.000000  2.000000  2.000000  2.000000  2.000000  2.000000
                       2.000000  2.000000  2.000000  2.000000  2.000000  2.000000
                       2.000000  2.000000  2.000000  2.000000  2.000000  2.000000
                       2.000000  2.000000  2.000000  2.000000  2.000000  2.000000
                       2.000000  2.000000  2.000000  2.000000  2.000000  2.000000
                       2.000000  2.000000  2.000000  2.000000  2.000000  2.000000
                       2.000000  2.000000  2.000000  0.000000  0.000000  0.000000
                       0.000000  0.000000  0.000000  0.000000  0.000000  0.000000
                       0.000000  0.000000  0.000000  0.000000  0.000000  0.000000
                       0.000000  0.000000  0.000000  0.000000  0.000000  0.000000
                       0.000000  0.000000  0.000000  0.000000  0.000000  0.000000
                       0.000000  0.000000  0.000000  0.000000  0.000000  0.000000
                       0.000000  0.000000  0.000000  0.000000
                       2.000000  2.000000  2.000000  2.000000  2.000000  2.000000
                       2.000000  2.000000  2.000000  2.000000  2.000000  2.000000
                       2.000000  2.000000  2.000000  2.000000  2.000000  2.000000
                       2.000000  2.000000  2.000000  2.000000  2.000000  2.000000
                       2.000000  2.000000  2.000000  2.000000  2.000000  2.000000
                       2.000000  2.000000  2.000000  2.000000  2.000000  2.000000
                       2.000000  2.000000  2.000000  2.000000  2.000000  2.000000
                       2.000000  2.000000  2.000000  0.000000  0.000000  0.000000
                       0.000000  0.000000  0.000000  0.000000  0.000000  0.000000
                       0.000000  0.000000  0.000000  0.000000  0.000000  0.000000
                       0.000000  0.000000  0.000000  0.000000  0.000000  0.000000
                       0.000000  0.000000  0.000000  0.000000  0.000000  0.000000
                       0.000000  0.000000  0.000000  0.000000  0.000000  0.000000
                       0.000000  0.000000  0.000000  0.000000
                       2.000000  2.000000  2.000000  2.000000  2.000000  2.000000
                       2.000000  2.000000  2.000000  2.000000  2.000000  2.000000
                       2.000000  2.000000  2.000000  2.000000  2.000000  2.000000
                       2.000000  2.000000  2.000000  2.000000  2.000000  2.000000
                       2.000000  2.000000  2.000000  2.000000  2.000000  2.000000
                       2.000000  2.000000  2.000000  2.000000  2.000000  2.000000
                       2.000000  2.000000  2.000000  2.000000  2.000000  2.000000
                       2.000000  2.000000  2.000000  0.000000  0.000000  0.000000
                       0.000000  0.000000  0.000000  0.000000  0.000000  0.000000
                       0.000000  0.000000  0.000000  0.000000  0.000000  0.000000
                       0.000000  0.000000  0.000000  0.000000  0.000000  0.000000
                       0.000000  0.000000  0.000000  0.000000  0.000000  0.000000
                       0.000000  0.000000  0.000000  0.000000  0.000000  0.000000
                       0.000000  0.000000  0.000000  0.000000
           occopt           7
           prtden           0
            prtwf           0
           shiftk      5.00000000E-01  5.00000000E-01  5.00000000E-01
          spgroup           6
           symrel      1  0  0   0  1  0   0  0  1       1  0  0   0 -1  0   0  0  1
            tnons      0.0000000  0.0000000  0.0000000     0.0000000 -0.0000000  0.0000000
           toldfe      1.00000000E-07 Hartree
          tolmxde      1.00000000E-04 Hartree
           tolmxf      0.00000000E+00
           tsmear      3.00000000E-02 Hartree
            typat      1  1  1  1  1  1  1  1  1  1  1  1  1  1  1  1  1  1  1  1
                       1  1  1  1  1  1  1  1  2
              wtk        0.05556    0.05556    0.05556    0.05556    0.05556    0.05556
                         0.05556    0.05556    0.05556    0.05556    0.05556    0.05556
                         0.05556    0.05556    0.05556    0.05556    0.05556    0.05556
           xangst     -9.4699965718E-08 -6.0326735376E-11  1.4059608299E+01
                      -9.4699965718E-08  2.8646172650E+00  1.4059608299E+01
                       2.4808312077E+00  1.4323086325E+00  1.4059608299E+01
                       2.4808312077E+00  4.2969258975E+00  1.4059608299E+01
                       8.2694360961E-01  1.4323086325E+00  1.1698811465E+01
                       8.2694360961E-01  4.2969258975E+00  1.1698811465E+01
                       3.3077749120E+00  2.8646172650E+00  1.1698811465E+01
                       3.3077749120E+00 -6.0326735376E-11  1.1698811465E+01
                       1.6538873139E+00 -6.0326735376E-11  9.3638499357E+00
                       1.6538873139E+00  2.8646172650E+00  9.3638499357E+00
                       4.1347186163E+00  1.4323086325E+00  9.3638499357E+00
                       4.1347186163E+00  4.2969258975E+00  9.3638499357E+00
                      -9.4699965718E-08 -6.0326735376E-11  7.0202400025E+00
                      -9.4699965718E-08  2.8646172650E+00  7.0202400025E+00
                       2.4808312077E+00  1.4323086325E+00  7.0202400025E+00
                       2.4808312077E+00  4.2969258975E+00  7.0202400025E+00
                       8.2694360961E-01  1.4323086325E+00  4.6779000867E+00
                       8.2694360961E-01  4.2969258975E+00  4.6779000867E+00
                       3.3077749120E+00 -6.0326735376E-11  4.6779000867E+00
                       3.3077749120E+00  2.8646172650E+00  4.6779000867E+00
                       1.6538873139E+00 -6.0326735376E-11  2.3389500433E+00
                       1.6538873139E+00  2.8646172650E+00  2.3389500433E+00
                       4.1347186163E+00  1.4323086325E+00  2.3389500433E+00
                       4.1347186163E+00  4.2969258975E+00  2.3389500433E+00
                      -9.4699965718E-08 -6.0326735376E-11  1.0000000001E-03
                      -9.4699965718E-08  2.8646172650E+00  1.0000000001E-03
                       2.4808312077E+00  1.4323086325E+00  1.0000000001E-03
                       2.4808312077E+00  4.2969258975E+00  1.0000000001E-03
                      -9.4699965718E-08  2.8646172650E+00  1.5750711890E+01
            xcart     -1.7895700000E-07 -1.1400100835E-10  2.6568809221E+01
                      -1.7895700000E-07  5.4133421064E+00  2.6568809221E+01
                       4.6880915645E+00  2.7066710532E+00  2.6568809221E+01
                       4.6880915645E+00  8.1200131596E+00  2.6568809221E+01
                       1.5626969495E+00  2.7066710532E+00  2.2107549749E+01
                       1.5626969495E+00  8.1200131596E+00  2.2107549749E+01
                       6.2507886929E+00  5.4133421064E+00  2.2107549749E+01
                       6.2507886929E+00 -1.1400100835E-10  2.2107549749E+01
                       3.1253940779E+00 -1.1400100835E-10  1.7695111928E+01
                       3.1253940779E+00  5.4133421064E+00  1.7695111928E+01
                       7.8134858214E+00  2.7066710532E+00  1.7695111928E+01
                       7.8134858214E+00  8.1200131596E+00  1.7695111928E+01
                      -1.7895700000E-07 -1.1400100835E-10  1.3266330992E+01
                      -1.7895700000E-07  5.4133421064E+00  1.3266330992E+01
                       4.6880915645E+00  2.7066710532E+00  1.3266330992E+01
                       4.6880915645E+00  8.1200131596E+00  1.3266330992E+01
                       1.5626969495E+00  2.7066710532E+00  8.8399500409E+00
                       1.5626969495E+00  8.1200131596E+00  8.8399500409E+00
                       6.2507886929E+00 -1.1400100835E-10  8.8399500409E+00
                       6.2507886929E+00  5.4133421064E+00  8.8399500409E+00
                       3.1253940779E+00 -1.1400100835E-10  4.4199750203E+00
                       3.1253940779E+00  5.4133421064E+00  4.4199750203E+00
                       7.8134858214E+00  2.7066710532E+00  4.4199750203E+00
                       7.8134858214E+00  8.1200131596E+00  4.4199750203E+00
                      -1.7895700000E-07 -1.1400100835E-10  1.8897261330E-03
                      -1.7895700000E-07  5.4133421064E+00  1.8897261330E-03
                       4.6880915645E+00  2.7066710532E+00  1.8897261330E-03
                       4.6880915645E+00  8.1200131596E+00  1.8897261330E-03
                      -1.7895700000E-07  5.4133421064E+00  2.9764531870E+01
             xred     -1.9086337234E-08 -1.0529632721E-11  3.1929199395E-01
                      -1.9086337234E-08  4.9999999999E-01  3.1929199395E-01
                       4.9999998091E-01  2.4999999999E-01  3.1929199395E-01
                       4.9999998091E-01  7.4999999998E-01  3.1929199395E-01
                       1.6666663485E-01  2.4999999999E-01  2.6567858507E-01
                       1.6666663485E-01  7.4999999998E-01  2.6567858507E-01
                       6.6666663485E-01  4.9999999999E-01  2.6567858507E-01
                       6.6666663485E-01 -1.0529632721E-11  2.6567858507E-01
                       3.3333328878E-01 -1.0529632721E-11  2.1265189281E-01
                       3.3333328878E-01  4.9999999999E-01  2.1265189281E-01
                       8.3333328878E-01  2.4999999999E-01  2.1265189281E-01
                       8.3333328878E-01  7.4999999998E-01  2.1265189281E-01
                      -1.9086337234E-08 -1.0529632721E-11  1.5942879636E-01
                      -1.9086337234E-08  4.9999999999E-01  1.5942879636E-01
                       4.9999998091E-01  2.4999999999E-01  1.5942879636E-01
                       4.9999998091E-01  7.4999999998E-01  1.5942879636E-01
                       1.6666663485E-01  2.4999999999E-01  1.0623454185E-01
                       1.6666663485E-01  7.4999999998E-01  1.0623454185E-01
                       6.6666663485E-01 -1.0529632721E-11  1.0623454185E-01
                       6.6666663485E-01  4.9999999999E-01  1.0623454185E-01
                       3.3333328878E-01 -1.0529632721E-11  5.3117270922E-02
                       3.3333328878E-01  4.9999999999E-01  5.3117270922E-02
                       8.3333328878E-01  2.4999999999E-01  5.3117270922E-02
                       8.3333328878E-01  7.4999999998E-01  5.3117270922E-02
                      -1.9086337234E-08 -1.0529632721E-11  2.2709878339E-05
                      -1.9086337234E-08  4.9999999999E-01  2.2709878339E-05
                       4.9999998091E-01  2.4999999999E-01  2.2709878339E-05
                       4.9999998091E-01  7.4999999998E-01  2.2709878339E-05
                      -1.9086337234E-08  4.9999999999E-01  3.5769675076E-01
            znucl       13.00000    8.00000

================================================================================

 chkinp: Checking input parameters for consistency.

================================================================================
== DATASET  1 ==================================================================
-   mpi_nproc: 24, omp_nthreads: 1 (-1 if OMP is not activated)
-    --> not optimal distribution: autoparal keyword recommended in input file <--


--- !DatasetInfo
iteration_state: {dtset: 1, }
dimensions: {natom: 29, nkpt: 18, mband: 82, nsppol: 1, nspinor: 1, nspden: 1, mpw: 100940, }
cutoff_energies: {ecut:  30.0, pawecutdg:  -1.0, }
electrons: {nelect:   9.00000000E+01, charge:   0.00000000E+00, occopt:   7.00000000E+00, tsmear:   3.00000000E-02, }
meta: {optdriver: 0, ionmov: 2, optcell: 0, iscf: 17, paral_kgb: 0, }
...

 Exchange-correlation functional for the present dataset will be:
  GGA: Perdew-Burke-Ernzerhof functional - ixc=11
 Citation for XC functional:
  J.P.Perdew, K.Burke, M.Ernzerhof, PRL 77, 3865 (1996)

 Real(R)+Recip(G) space primitive vectors, cartesian coordinates (Bohr,Bohr^-1):
 R(1)=  9.3761835  0.0000000  0.0000000  G(1)=  0.1066532  0.0000000  0.0000000
 R(2)=  0.0000000 10.8266842  0.0000000  G(2)=  0.0000000  0.0923644  0.0000000
 R(3)=  0.0000000  0.0000000 83.2116361  G(3)=  0.0000000  0.0000000  0.0120176
 Unit cell volume ucvol=  8.4470610E+03 bohr^3
 Angles (23,13,12)=  9.00000000E+01  9.00000000E+01  9.00000000E+01 degrees

 getcut: wavevector=  0.0000  0.0000  0.0000  ngfft=  54  64 480
         ecut(hartree)=     39.675   => boxcut(ratio)=   2.03116

--- Pseudopotential description ------------------------------------------------
- pspini: atom type   1  psp file is /beegfs-home/users/w.zhengqing/dft/nc_paw/psp-nc/Al.psp8
- pspatm: opening atomic psp file    /beegfs-home/users/w.zhengqing/dft/nc_paw/psp-nc/Al.psp8
- Al    ONCVPSP-3.2.3.1  r_core=   1.76802   1.76802   1.70587
- 13.00000   3.00000    170504                znucl, zion, pspdat
    8   11    2    4       600   0.00000      pspcod,pspxc,lmax,lloc,mmax,r2well
    5.99000000000000    5.00000000000000    0.00000000000000   rchrg,fchrg,qchrg
     nproj     2     2     2
     extension_switch     1
  pspatm : epsatm=    4.08140610
         --- l  ekb(1:nproj) -->
             0    5.126667    0.728291
             1    7.287548    0.832437
             2   -2.770497   -0.637722
 pspatm: atomic psp has been read  and splines computed

- pspini: atom type   2  psp file is /beegfs-home/users/w.zhengqing/dft/nc_paw/psp-nc/O.psp8
- pspatm: opening atomic psp file    /beegfs-home/users/w.zhengqing/dft/nc_paw/psp-nc/O.psp8
- O     ONCVPSP-3.2.3.1  r_core=   1.35509   1.45563   1.26150
-  8.00000   6.00000    170504                znucl, zion, pspdat
    8   11    2    4       600   0.00000      pspcod,pspxc,lmax,lloc,mmax,r2well
    5.99000000000000    4.00000000000000    0.00000000000000   rchrg,fchrg,qchrg
     nproj     2     2     1
     extension_switch     1
  pspatm : epsatm=    6.19546011
         --- l  ekb(1:nproj) -->
             0    6.056735    0.824024
             1   -4.717130   -1.149271
             2   -1.331955
 pspatm: atomic psp has been read  and splines computed

   1.08427348E+04                                ecore*ucvol(ha*bohr**3)
--------------------------------------------------------------------------------

_setup2: Arith. and geom. avg. npw (full set) are  100830.556  100830.546

================================================================================

=== [ionmov= 2] Broyden-Fletcher-Goldfard-Shanno method (forces)            
================================================================================

--- Iteration: (  1/300) Internal Cycle: (1/1)
--------------------------------------------------------------------------------

---SELF-CONSISTENT-FIELD CONVERGENCE--------------------------------------------

--- !BeginCycle
iteration_state: {dtset: 1, itime: 1, icycle: 1, }
solver: {iscf: 17, nstep: 300, nline: 4, wfoptalg: 0, }
tolerances: {toldfe: 1.00E-07, }
...

     iter   Etot(hartree)      deltaE(h)  residm     nres2
 ETOT  1  -81.277948346589    -8.128E+01 2.947E-02 3.105E+01
 ETOT  2  -81.371666184410    -9.372E-02 2.544E-03 4.568E+00
 ETOT  3  -81.359226134133     1.244E-02 1.051E-03 1.726E+00
 ETOT  4  -81.357911254304     1.315E-03 5.590E-03 1.090E-01
 ETOT  5  -81.360124321874    -2.213E-03 5.065E-04 3.467E-01
 ETOT  6  -81.359794118692     3.302E-04 9.903E-04 1.787E-01
 ETOT  7  -81.359141057873     6.531E-04 1.131E-03 3.393E-02
 ETOT  8  -81.359252406219    -1.113E-04 4.710E-04 1.486E-02
 ETOT  9  -81.359445017639    -1.926E-04 2.317E-04 4.331E-03
 ETOT 10  -81.359602409233    -1.574E-04 1.307E-04 2.880E-04
 ETOT 11  -81.359606935077    -4.526E-06 7.268E-05 1.309E-05
 ETOT 12  -81.359607471432    -5.364E-07 7.533E-05 5.661E-06
 ETOT 13  -81.359608786358    -1.315E-06 4.684E-05 1.896E-07
 ETOT 14  -81.359608921731    -1.354E-07 5.405E-05 9.432E-09
 ETOT 15  -81.359608944869    -2.314E-08 3.583E-05 1.385E-09
 ETOT 16  -81.359608943792     1.076E-09 3.757E-05 3.508E-10

 At SCF step   16, etot is converged : 
  for the second time, diff in etot=  1.076E-09 < toldfe=  1.000E-07

 Cartesian components of stress tensor (hartree/bohr^3)
  sigma(1 1)=  2.20116442E-05  sigma(3 2)=  0.00000000E+00
  sigma(2 2)=  2.34618244E-05  sigma(3 1)= -9.45837930E-08
  sigma(3 3)=  4.90585711E-06  sigma(2 1)=  0.00000000E+00


--- !ResultsGS
iteration_state: {dtset: 1, itime: 1, icycle: 1, }
comment   : Summary of ground state results
lattice_vectors:
- [  9.3761835,   0.0000000,   0.0000000, ]
- [  0.0000000,  10.8266842,   0.0000000, ]
- [  0.0000000,   0.0000000,  83.2116361, ]
lattice_lengths: [   9.37618,   10.82668,   83.21164, ]
lattice_angles: [ 90.000,  90.000,  90.000, ] # degrees, (23, 13, 12)
lattice_volume:   8.4470610E+03
convergence: {deltae:  1.076E-09, res2:  3.508E-10, residm:  3.757E-05, diffor: null, }
etotal    :  -8.13596089E+01
entropy   :   0.00000000E+00
fermie    :  -2.37361426E-02
cartesian_stress_tensor: # hartree/bohr^3
- [  2.20116442E-05,   0.00000000E+00,  -9.45837930E-08, ]
- [  0.00000000E+00,   2.34618244E-05,   0.00000000E+00, ]
- [ -9.45837930E-08,   0.00000000E+00,   4.90585711E-06, ]
pressure_GPa:  -4.9407E-01
xred      :
- [ -1.9086E-08,  -1.0530E-11,   3.1929E-01, Al]
- [ -1.9086E-08,   5.0000E-01,   3.1929E-01, Al]
- [  5.0000E-01,   2.5000E-01,   3.1929E-01, Al]
- [  5.0000E-01,   7.5000E-01,   3.1929E-01, Al]
- [  1.6667E-01,   2.5000E-01,   2.6568E-01, Al]
- [  1.6667E-01,   7.5000E-01,   2.6568E-01, Al]
- [  6.6667E-01,   5.0000E-01,   2.6568E-01, Al]
- [  6.6667E-01,  -1.0530E-11,   2.6568E-01, Al]
- [  3.3333E-01,  -1.0530E-11,   2.1265E-01, Al]
- [  3.3333E-01,   5.0000E-01,   2.1265E-01, Al]
- [  8.3333E-01,   2.5000E-01,   2.1265E-01, Al]
- [  8.3333E-01,   7.5000E-01,   2.1265E-01, Al]
- [ -1.9086E-08,  -1.0530E-11,   1.5943E-01, Al]
- [ -1.9086E-08,   5.0000E-01,   1.5943E-01, Al]
- [  5.0000E-01,   2.5000E-01,   1.5943E-01, Al]
- [  5.0000E-01,   7.5000E-01,   1.5943E-01, Al]
- [  1.6667E-01,   2.5000E-01,   1.0623E-01, Al]
- [  1.6667E-01,   7.5000E-01,   1.0623E-01, Al]
- [  6.6667E-01,  -1.0530E-11,   1.0623E-01, Al]
- [  6.6667E-01,   5.0000E-01,   1.0623E-01, Al]
- [  3.3333E-01,  -1.0530E-11,   5.3117E-02, Al]
- [  3.3333E-01,   5.0000E-01,   5.3117E-02, Al]
- [  8.3333E-01,   2.5000E-01,   5.3117E-02, Al]
- [  8.3333E-01,   7.5000E-01,   5.3117E-02, Al]
- [ -1.9086E-08,  -1.0530E-11,   2.2710E-05, Al]
- [ -1.9086E-08,   5.0000E-01,   2.2710E-05, Al]
- [  5.0000E-01,   2.5000E-01,   2.2710E-05, Al]
- [  5.0000E-01,   7.5000E-01,   2.2710E-05, Al]
- [ -1.9086E-08,   5.0000E-01,   3.5770E-01,  O]
cartesian_forces: # hartree/bohr
- [  9.33255915E-04,  -0.00000000E+00,   5.27060901E-04, ]
- [ -5.35485336E-05,  -0.00000000E+00,  -1.67653714E-03, ]
- [ -3.82886925E-04,  -1.61989497E-03,   1.02106480E-03, ]
- [ -3.82886925E-04,   1.61989497E-03,   1.02106480E-03, ]
- [ -4.21881450E-04,   2.42048962E-04,   1.50841129E-03, ]
- [ -4.21881450E-04,  -2.42048962E-04,   1.50841129E-03, ]
- [  5.68397275E-04,  -0.00000000E+00,   3.36136067E-04, ]
- [  3.28394004E-05,  -0.00000000E+00,  -1.70123856E-03, ]
- [  4.61242980E-05,  -0.00000000E+00,   1.03331457E-04, ]
- [  2.24650300E-04,  -0.00000000E+00,  -4.22297491E-04, ]
- [ -1.10769831E-04,   2.41761342E-04,   3.07197156E-04, ]
- [ -1.10769831E-04,  -2.41761342E-04,   3.07197156E-04, ]
- [ -6.58828206E-05,  -0.00000000E+00,  -7.83828904E-06, ]
- [  4.90532807E-05,  -0.00000000E+00,   1.25584548E-04, ]
- [  5.58189390E-06,   1.17105695E-05,   2.51291765E-04, ]
- [  5.58189390E-06,  -1.17105695E-05,   2.51291765E-04, ]
- [  2.49528817E-05,   2.78954595E-05,  -5.01624467E-04, ]
- [  2.49528817E-05,  -2.78954595E-05,  -5.01624467E-04, ]
- [ -3.49349993E-05,  -0.00000000E+00,  -4.81038021E-04, ]
- [ -8.82377593E-06,  -0.00000000E+00,  -4.95025053E-04, ]
- [  2.31633198E-05,  -0.00000000E+00,   1.31025557E-03, ]
- [  2.07242395E-05,  -0.00000000E+00,   1.32915493E-03, ]
- [ -1.51941899E-05,  -1.50151441E-05,   1.34501251E-03, ]
- [ -1.51941899E-05,   1.50151441E-05,   1.34501251E-03, ]
- [  1.67516966E-06,  -0.00000000E+00,  -6.94879974E-04, ]
- [  2.16748315E-06,  -0.00000000E+00,  -6.97635387E-04, ]
- [ -6.58559724E-06,   3.75545107E-06,  -7.03637350E-04, ]
- [ -6.58559724E-06,  -3.75545107E-06,  -7.03637350E-04, ]
- [  7.47058846E-05,  -0.00000000E+00,  -4.01046497E-03, ]
force_length_stats: {min:   6.63474553E-05, max:   4.01116072E-03, mean:   9.79984334E-04, }
...

 Integrated electronic density in atomic spheres:
 ------------------------------------------------
 Atom  Sphere_radius  Integrated_density
    1        2.00000          0.84321259
    2        2.00000          1.02745872
    3        2.00000          0.84309426
    4        2.00000          0.84309426
    5        2.00000          0.87395805
    6        2.00000          0.87395805
    7        2.00000          0.87479113
    8        2.00000          0.87663785
    9        2.00000          0.88266270
   10        2.00000          0.88250897
   11        2.00000          0.88177772
   12        2.00000          0.88177772
   13        2.00000          0.87545177
   14        2.00000          0.87550900
   15        2.00000          0.87538087
   16        2.00000          0.87538087
   17        2.00000          0.88080789
   18        2.00000          0.88080789
   19        2.00000          0.88074604
   20        2.00000          0.88093054
   21        2.00000          0.87522536
   22        2.00000          0.87516913
   23        2.00000          0.87517392
   24        2.00000          0.87517392
   25        2.00000          0.85215426
   26        2.00000          0.85211102
   27        2.00000          0.85215364
   28        2.00000          0.85215364
   29        2.00000          5.95493430

---OUTPUT-----------------------------------------------------------------------

 Cartesian coordinates (xcart) [bohr]
 -1.78957000000000E-07 -1.14001008352399E-10  2.65688092207560E+01
 -1.78957000000000E-07  5.41334210638600E+00  2.65688092207560E+01
  4.68809156446900E+00  2.70667105319300E+00  2.65688092207560E+01
  4.68809156446900E+00  8.12001315957900E+00  2.65688092207560E+01
  1.56269694950300E+00  2.70667105319300E+00  2.21075497491130E+01
  1.56269694950300E+00  8.12001315957900E+00  2.21075497491130E+01
  6.25078869291000E+00  5.41334210638600E+00  2.21075497491130E+01
  6.25078869291000E+00 -1.14001008352399E-10  2.21075497491130E+01
  3.12539407792500E+00 -1.14001008352399E-10  1.76951119279120E+01
  3.12539407792500E+00  5.41334210638600E+00  1.76951119279120E+01
  7.81348582135100E+00  2.70667105319300E+00  1.76951119279120E+01
  7.81348582135100E+00  8.12001315957900E+00  1.76951119279120E+01
 -1.78957000000000E-07 -1.14001008352399E-10  1.32663309918530E+01
 -1.78957000000000E-07  5.41334210638600E+00  1.32663309918530E+01
  4.68809156446900E+00  2.70667105319300E+00  1.32663309918530E+01
  4.68809156446900E+00  8.12001315957900E+00  1.32663309918530E+01
  1.56269694950300E+00  2.70667105319300E+00  8.83995004086500E+00
  1.56269694950300E+00  8.12001315957900E+00  8.83995004086500E+00
  6.25078869291000E+00 -1.14001008352399E-10  8.83995004086500E+00
  6.25078869291000E+00  5.41334210638600E+00  8.83995004086500E+00
  3.12539407792500E+00 -1.14001008352399E-10  4.41997502033800E+00
  3.12539407792500E+00  5.41334210638600E+00  4.41997502033800E+00
  7.81348582135100E+00  2.70667105319300E+00  4.41997502033800E+00
  7.81348582135100E+00  8.12001315957900E+00  4.41997502033800E+00
 -1.78957000000000E-07 -1.14001008352399E-10  1.88972613300000E-03
 -1.78957000000000E-07  5.41334210638600E+00  1.88972613300000E-03
  4.68809156446900E+00  2.70667105319300E+00  1.88972613300000E-03
  4.68809156446900E+00  8.12001315957900E+00  1.88972613300000E-03
 -1.78957000000000E-07  5.41334210638600E+00  2.97645318700860E+01
 Reduced coordinates (xred)
 -1.90863372341242E-08 -1.05296327213011E-11  3.19291993950103E-01
 -1.90863372341242E-08  4.99999999989470E-01  3.19291993950103E-01
  4.99999980911103E-01  2.49999999994735E-01  3.19291993950103E-01
  4.99999980911103E-01  7.49999999984206E-01  3.19291993950103E-01
  1.66666634850559E-01  2.49999999994735E-01  2.65678585069253E-01
  1.66666634850559E-01  7.49999999984206E-01  2.65678585069253E-01
  6.66666634845972E-01  4.99999999989470E-01  2.65678585069253E-01
  6.66666634845972E-01 -1.05296327213011E-11  2.65678585069253E-01
  3.33333288783402E-01 -1.05296327213011E-11  2.12651892814958E-01
  3.33333288783402E-01  4.99999999989470E-01  2.12651892814958E-01
  8.33333288780842E-01  2.49999999994735E-01  2.12651892814958E-01
  8.33333288780842E-01  7.49999999984206E-01  2.12651892814958E-01
 -1.90863372341242E-08 -1.05296327213011E-11  1.59428796360271E-01
 -1.90863372341242E-08  4.99999999989470E-01  1.59428796360271E-01
  4.99999980911103E-01  2.49999999994735E-01  1.59428796360271E-01
  4.99999980911103E-01  7.49999999984206E-01  1.59428796360271E-01
  1.66666634850559E-01  2.49999999994735E-01  1.06234541846237E-01
  1.66666634850559E-01  7.49999999984206E-01  1.06234541846237E-01
  6.66666634845972E-01 -1.05296327213011E-11  1.06234541846237E-01
  6.66666634845972E-01  4.99999999989470E-01  1.06234541846237E-01
  3.33333288783402E-01 -1.05296327213011E-11  5.31172709219826E-02
  3.33333288783402E-01  4.99999999989470E-01  5.31172709219826E-02
  8.33333288780842E-01  2.49999999994735E-01  5.31172709219826E-02
  8.33333288780842E-01  7.49999999984206E-01  5.31172709219826E-02
 -1.90863372341242E-08 -1.05296327213011E-11  2.27098783393657E-05
 -1.90863372341242E-08  4.99999999989470E-01  2.27098783393657E-05
  4.99999980911103E-01  2.49999999994735E-01  2.27098783393657E-05
  4.99999980911103E-01  7.49999999984206E-01  2.27098783393657E-05
 -1.90863372341242E-08  4.99999999989470E-01  3.57696750758660E-01
 Cartesian forces (fcart) [Ha/bohr]; max,rms= 4.01046E-03 4.01046E-03 (free atoms)
  9.33255915190601E-04 -0.00000000000000E+00  5.27060900858613E-04
 -5.35485335890478E-05 -0.00000000000000E+00 -1.67653713724936E-03
 -3.82886925357038E-04 -1.61989497193734E-03  1.02106480082364E-03
 -3.82886925357038E-04  1.61989497193734E-03  1.02106480082364E-03
 -4.21881449794655E-04  2.42048962407530E-04  1.50841129175640E-03
 -4.21881449794655E-04 -2.42048962407530E-04  1.50841129175640E-03
  5.68397275006969E-04 -0.00000000000000E+00  3.36136066971097E-04
  3.28394003897782E-05 -0.00000000000000E+00 -1.70123855912808E-03
  4.61242980404124E-05 -0.00000000000000E+00  1.03331456689605E-04
  2.24650299708877E-04 -0.00000000000000E+00 -4.22297490757182E-04
 -1.10769831499694E-04  2.41761341943069E-04  3.07197156439571E-04
 -1.10769831499694E-04 -2.41761341943069E-04  3.07197156439571E-04
 -6.58828206216558E-05 -0.00000000000000E+00 -7.83828904124200E-06
  4.90532807139937E-05 -0.00000000000000E+00  1.25584547732548E-04
  5.58189390433504E-06  1.17105694988240E-05  2.51291764567722E-04
  5.58189390433504E-06 -1.17105694988240E-05  2.51291764567722E-04
  2.49528816965316E-05  2.78954595224661E-05 -5.01624466981923E-04
  2.49528816965316E-05 -2.78954595224661E-05 -5.01624466981923E-04
 -3.49349992866918E-05 -0.00000000000000E+00 -4.81038020851466E-04
 -8.82377593251563E-06 -0.00000000000000E+00 -4.95025053314772E-04
  2.31633197841725E-05 -0.00000000000000E+00  1.31025556923030E-03
  2.07242394911511E-05 -0.00000000000000E+00  1.32915492574130E-03
 -1.51941898851360E-05 -1.50151440831316E-05  1.34501251196285E-03
 -1.51941898851360E-05  1.50151440831316E-05  1.34501251196285E-03
  1.67516966114338E-06 -0.00000000000000E+00 -6.94879973517908E-04
  2.16748314636373E-06 -0.00000000000000E+00 -6.97635386670946E-04
 -6.58559723844034E-06  3.75545106673175E-06 -7.03637349572513E-04
 -6.58559723844034E-06 -3.75545106673175E-06 -7.03637349572513E-04
  7.47058846446434E-05 -0.00000000000000E+00 -4.01046497468398E-03
 Gradient of E wrt nuclear positions in reduced coordinates (gred)
 -8.75037870106186E-03 -0.00000000000000E+00 -4.38575999021781E-02
  5.02080876385340E-04  0.00000000000000E+00  1.39507398228255E-01
  3.59001806688257E-03  1.75380913193921E-02 -8.49644726743508E-02
  3.59001806688257E-03 -1.75380913193921E-02 -8.49644726743508E-02
  3.95563788299407E-03 -2.62058768007064E-03 -1.25517371548542E-01
  3.95563788299407E-03  2.62058768007064E-03 -1.25517371548542E-01
 -5.32939714391930E-03 -0.00000000000000E+00 -2.79704320959767E-02
 -3.07908243654336E-04 -0.00000000000000E+00  1.41562843957595E-01
 -4.32469881631368E-04 -0.00000000000000E+00 -8.59837957514823E-03
 -2.10636243045751E-03 -0.00000000000000E+00  3.51400651407656E-02
  1.03859826495413E-03 -2.61747370412872E-03 -2.55623780027419E-02
  1.03859826495413E-03  2.61747370412872E-03 -2.55623780027419E-02
  6.17729414783164E-04  0.00000000000000E+00  6.52236855605111E-04
 -4.59932560608818E-04 -0.00000000000000E+00 -1.04500956898482E-02
 -5.23368614514539E-05 -1.26786637918157E-04 -2.09103988764288E-02
 -5.23368614514539E-05  1.26786637918157E-04 -2.09103988764288E-02
 -2.33962797313589E-04 -3.02015331226264E-04  4.17409926219098E-02
 -2.33962797313589E-04  3.02015331226264E-04  4.17409926219098E-02
  3.27556963426743E-04  0.00000000000000E+00  4.00279607572307E-02
  8.27333421905587E-05  0.00000000000000E+00  4.11918446131477E-02
 -2.17183536462142E-04 -0.00000000000000E+00 -1.09028509668028E-01
 -1.94314272095492E-04 -0.00000000000000E+00 -1.10601156045170E-01
  1.42463512297836E-04  1.62564223400762E-04 -1.11920691739785E-01
  1.42463512297836E-04 -1.62564223400762E-04 -1.11920691739785E-01
 -1.57066981145684E-05 -0.00000000000000E+00  5.78220995124809E-02
 -2.03227196850696E-05 -0.00000000000000E+00  5.80513819491675E-02
  6.17477680784386E-05 -4.06590827768787E-05  5.85508151022165E-02
  6.17477680784386E-05  4.06590827768787E-05  5.85508151022165E-02
 -7.00456081979362E-04 -0.00000000000000E+00  3.33717352197545E-01
 Total energy (etotal) [Ha]= -8.13596089437922E+01

--- Iteration: (  2/300) Internal Cycle: (1/1)
--------------------------------------------------------------------------------

---SELF-CONSISTENT-FIELD CONVERGENCE--------------------------------------------

--- !BeginCycle
iteration_state: {dtset: 1, itime: 2, icycle: 1, }
solver: {iscf: 17, nstep: 300, nline: 4, wfoptalg: 0, }
tolerances: {toldfe: 1.00E-07, }
...

     iter   Etot(hartree)      deltaE(h)  residm     nres2
 ETOT  1  -81.359637530144    -8.136E+01 2.557E-05 3.958E-03
 ETOT  2  -81.359608124473     2.941E-05 6.122E-05 7.252E-04
 ETOT  3  -81.359607706176     4.183E-07 3.023E-05 1.203E-04
 ETOT  4  -81.359612631759    -4.926E-06 1.411E-05 2.996E-05
 ETOT  5  -81.359621237843    -8.606E-06 1.076E-05 2.234E-06
 ETOT  6  -81.359622758888    -1.521E-06 2.241E-05 2.394E-08
 ETOT  7  -81.359622804977    -4.609E-08 6.208E-06 1.166E-08
 ETOT  8  -81.359622809332    -4.355E-09 1.266E-05 1.846E-09

 At SCF step    8, etot is converged : 
  for the second time, diff in etot=  4.355E-09 < toldfe=  1.000E-07

 Cartesian components of stress tensor (hartree/bohr^3)
  sigma(1 1)=  2.19947252E-05  sigma(3 2)=  0.00000000E+00
  sigma(2 2)=  2.34437961E-05  sigma(3 1)= -9.50929095E-08
  sigma(3 3)=  4.48600558E-06  sigma(2 1)=  0.00000000E+00


--- !ResultsGS
iteration_state: {dtset: 1, itime: 2, icycle: 1, }
comment   : Summary of ground state results
lattice_vectors:
- [  9.3761835,   0.0000000,   0.0000000, ]
- [  0.0000000,  10.8266842,   0.0000000, ]
- [  0.0000000,   0.0000000,  83.2116361, ]
lattice_lengths: [   9.37618,   10.82668,   83.21164, ]
lattice_angles: [ 90.000,  90.000,  90.000, ] # degrees, (23, 13, 12)
lattice_volume:   8.4470610E+03
convergence: {deltae: -4.355E-09, res2:  1.846E-09, residm:  1.266E-05, diffor: null, }
etotal    :  -8.13596228E+01
entropy   :   0.00000000E+00
fermie    :  -2.37018220E-02
cartesian_stress_tensor: # hartree/bohr^3
- [  2.19947252E-05,   0.00000000E+00,  -9.50929095E-08, ]
- [  0.00000000E+00,   2.34437961E-05,   0.00000000E+00, ]
- [ -9.50929095E-08,   0.00000000E+00,   4.48600558E-06, ]
pressure_GPa:  -4.8961E-01
xred      :
- [ -1.9086E-08,  -1.0530E-11,   3.1929E-01, Al]
- [ -1.9086E-08,   5.0000E-01,   3.1929E-01, Al]
- [  5.0000E-01,   2.5000E-01,   3.1929E-01, Al]
- [  5.0000E-01,   7.5000E-01,   3.1929E-01, Al]
- [  1.6667E-01,   2.5000E-01,   2.6568E-01, Al]
- [  1.6667E-01,   7.5000E-01,   2.6568E-01, Al]
- [  6.6667E-01,   5.0000E-01,   2.6568E-01, Al]
- [  6.6667E-01,  -1.0530E-11,   2.6568E-01, Al]
- [  3.3333E-01,  -1.0530E-11,   2.1265E-01, Al]
- [  3.3333E-01,   5.0000E-01,   2.1265E-01, Al]
- [  8.3333E-01,   2.5000E-01,   2.1265E-01, Al]
- [  8.3333E-01,   7.5000E-01,   2.1265E-01, Al]
- [ -1.9086E-08,  -1.0530E-11,   1.5943E-01, Al]
- [ -1.9086E-08,   5.0000E-01,   1.5943E-01, Al]
- [  5.0000E-01,   2.5000E-01,   1.5943E-01, Al]
- [  5.0000E-01,   7.5000E-01,   1.5943E-01, Al]
- [  1.6667E-01,   2.5000E-01,   1.0623E-01, Al]
- [  1.6667E-01,   7.5000E-01,   1.0623E-01, Al]
- [  6.6667E-01,  -1.0530E-11,   1.0623E-01, Al]
- [  6.6667E-01,   5.0000E-01,   1.0623E-01, Al]
- [  3.3333E-01,  -1.0530E-11,   5.3117E-02, Al]
- [  3.3333E-01,   5.0000E-01,   5.3117E-02, Al]
- [  8.3333E-01,   2.5000E-01,   5.3117E-02, Al]
- [  8.3333E-01,   7.5000E-01,   5.3117E-02, Al]
- [ -1.9086E-08,  -1.0530E-11,   2.2710E-05, Al]
- [ -1.9086E-08,   5.0000E-01,   2.2710E-05, Al]
- [  5.0000E-01,   2.5000E-01,   2.2710E-05, Al]
- [  5.0000E-01,   7.5000E-01,   2.2710E-05, Al]
- [ -1.9086E-08,   5.0000E-01,   3.5765E-01,  O]
cartesian_forces: # hartree/bohr
- [  9.36387085E-04,  -0.00000000E+00,   5.12771026E-04, ]
- [ -5.30951241E-05,  -0.00000000E+00,  -2.75417934E-03, ]
- [ -3.84422346E-04,  -1.62766631E-03,   1.00869607E-03, ]
- [ -3.84422346E-04,   1.62766631E-03,   1.00869607E-03, ]
- [ -4.23201058E-04,   2.42038668E-04,   1.51109934E-03, ]
- [ -4.23201058E-04,  -2.42038668E-04,   1.51109934E-03, ]
- [  5.68670885E-04,  -0.00000000E+00,   3.36648901E-04, ]
- [  3.41156968E-05,  -0.00000000E+00,  -1.70193956E-03, ]
- [  4.61709985E-05,  -0.00000000E+00,   1.02958101E-04, ]
- [  2.25028432E-04,  -0.00000000E+00,  -4.22459383E-04, ]
- [ -1.10920219E-04,   2.42377061E-04,   3.07931674E-04, ]
- [ -1.10920219E-04,  -2.42377061E-04,   3.07931674E-04, ]
- [ -6.58101974E-05,  -0.00000000E+00,  -8.06626559E-06, ]
- [  4.91681924E-05,  -0.00000000E+00,   1.26184482E-04, ]
- [  5.47081562E-06,   1.16700934E-05,   2.51306432E-04, ]
- [  5.47081562E-06,  -1.16700934E-05,   2.51306432E-04, ]
- [  2.49212332E-05,   2.79648851E-05,  -5.01530699E-04, ]
- [  2.49212332E-05,  -2.79648851E-05,  -5.01530699E-04, ]
- [ -3.49214140E-05,  -0.00000000E+00,  -4.80972814E-04, ]
- [ -8.68904706E-06,  -0.00000000E+00,  -4.95114185E-04, ]
- [  2.31538998E-05,  -0.00000000E+00,   1.31052042E-03, ]
- [  2.07750763E-05,  -0.00000000E+00,   1.32925143E-03, ]
- [ -1.52260769E-05,  -1.49893802E-05,   1.34517643E-03, ]
- [ -1.52260769E-05,   1.49893802E-05,   1.34517643E-03, ]
- [  1.66687541E-06,  -0.00000000E+00,  -6.94713605E-04, ]
- [  2.17170344E-06,  -0.00000000E+00,  -6.97488502E-04, ]
- [ -6.58422353E-06,   3.81831012E-06,  -7.03442454E-04, ]
- [ -6.58422353E-06,  -3.81831012E-06,  -7.03442454E-04, ]
- [  7.51306894E-05,  -0.00000000E+00,  -2.90187431E-03, ]
force_length_stats: {min:   6.63026901E-05, max:   2.90284673E-03, mean:   9.79115802E-04, }
...

 Integrated electronic density in atomic spheres:
 ------------------------------------------------
 Atom  Sphere_radius  Integrated_density
    1        2.00000          0.84322730
    2        2.00000          1.02958257
    3        2.00000          0.84310804
    4        2.00000          0.84310804
    5        2.00000          0.87396037
    6        2.00000          0.87396037
    7        2.00000          0.87479446
    8        2.00000          0.87663957
    9        2.00000          0.88266335
   10        2.00000          0.88250885
   11        2.00000          0.88177757
   12        2.00000          0.88177757
   13        2.00000          0.87545172
   14        2.00000          0.87550908
   15        2.00000          0.87538105
   16        2.00000          0.87538105
   17        2.00000          0.88080788
   18        2.00000          0.88080788
   19        2.00000          0.88074589
   20        2.00000          0.88093064
   21        2.00000          0.87522534
   22        2.00000          0.87516922
   23        2.00000          0.87517396
   24        2.00000          0.87517396
   25        2.00000          0.85215481
   26        2.00000          0.85211145
   27        2.00000          0.85215410
   28        2.00000          0.85215410
   29        2.00000          5.95456211

---OUTPUT-----------------------------------------------------------------------

 Cartesian coordinates (xcart) [bohr]
 -1.78957000000000E-07 -1.14001008352399E-10  2.65688092207560E+01
 -1.78957000000000E-07  5.41334210638600E+00  2.65688092207560E+01
  4.68809156446900E+00  2.70667105319300E+00  2.65688092207560E+01
  4.68809156446900E+00  8.12001315957900E+00  2.65688092207560E+01
  1.56269694950300E+00  2.70667105319300E+00  2.21075497491130E+01
  1.56269694950300E+00  8.12001315957900E+00  2.21075497491130E+01
  6.25078869291000E+00  5.41334210638600E+00  2.21075497491130E+01
  6.25078869291000E+00 -1.14001008352399E-10  2.21075497491130E+01
  3.12539407792500E+00 -1.14001008352399E-10  1.76951119279120E+01
  3.12539407792500E+00  5.41334210638600E+00  1.76951119279120E+01
  7.81348582135100E+00  2.70667105319300E+00  1.76951119279120E+01
  7.81348582135100E+00  8.12001315957900E+00  1.76951119279120E+01
 -1.78957000000000E-07 -1.14001008352399E-10  1.32663309918530E+01
 -1.78957000000000E-07  5.41334210638600E+00  1.32663309918530E+01
  4.68809156446900E+00  2.70667105319300E+00  1.32663309918530E+01
  4.68809156446900E+00  8.12001315957900E+00  1.32663309918530E+01
  1.56269694950300E+00  2.70667105319300E+00  8.83995004086500E+00
  1.56269694950300E+00  8.12001315957900E+00  8.83995004086500E+00
  6.25078869291000E+00 -1.14001008352399E-10  8.83995004086500E+00
  6.25078869291000E+00  5.41334210638600E+00  8.83995004086500E+00
  3.12539407792500E+00 -1.14001008352399E-10  4.41997502033800E+00
  3.12539407792500E+00  5.41334210638600E+00  4.41997502033800E+00
  7.81348582135100E+00  2.70667105319300E+00  4.41997502033800E+00
  7.81348582135100E+00  8.12001315957900E+00  4.41997502033800E+00
 -1.78957000000000E-07 -1.14001008352399E-10  1.88972613300000E-03
 -1.78957000000000E-07  5.41334210638600E+00  1.88972613300000E-03
  4.68809156446900E+00  2.70667105319300E+00  1.88972613300000E-03
  4.68809156446900E+00  8.12001315957900E+00  1.88972613300000E-03
 -1.78957000000000E-07  5.41334210638600E+00  2.97605214051113E+01
 Reduced coordinates (xred)
 -1.90863372341242E-08 -1.05296327213011E-11  3.19291993950103E-01
 -1.90863372341242E-08  4.99999999989470E-01  3.19291993950103E-01
  4.99999980911103E-01  2.49999999994735E-01  3.19291993950103E-01
  4.99999980911103E-01  7.49999999984206E-01  3.19291993950103E-01
  1.66666634850559E-01  2.49999999994735E-01  2.65678585069253E-01
  1.66666634850559E-01  7.49999999984206E-01  2.65678585069253E-01
  6.66666634845972E-01  4.99999999989470E-01  2.65678585069253E-01
  6.66666634845972E-01 -1.05296327213011E-11  2.65678585069253E-01
  3.33333288783402E-01 -1.05296327213011E-11  2.12651892814958E-01
  3.33333288783402E-01  4.99999999989470E-01  2.12651892814958E-01
  8.33333288780842E-01  2.49999999994735E-01  2.12651892814958E-01
  8.33333288780842E-01  7.49999999984206E-01  2.12651892814958E-01
 -1.90863372341242E-08 -1.05296327213011E-11  1.59428796360271E-01
 -1.90863372341242E-08  4.99999999989470E-01  1.59428796360271E-01
  4.99999980911103E-01  2.49999999994735E-01  1.59428796360271E-01
  4.99999980911103E-01  7.49999999984206E-01  1.59428796360271E-01
  1.66666634850559E-01  2.49999999994735E-01  1.06234541846237E-01
  1.66666634850559E-01  7.49999999984206E-01  1.06234541846237E-01
  6.66666634845972E-01 -1.05296327213011E-11  1.06234541846237E-01
  6.66666634845972E-01  4.99999999989470E-01  1.06234541846237E-01
  3.33333288783402E-01 -1.05296327213011E-11  5.31172709219826E-02
  3.33333288783402E-01  4.99999999989470E-01  5.31172709219826E-02
  8.33333288780842E-01  2.49999999994735E-01  5.31172709219826E-02
  8.33333288780842E-01  7.49999999984206E-01  5.31172709219826E-02
 -1.90863372341242E-08 -1.05296327213011E-11  2.27098783393657E-05
 -1.90863372341242E-08  4.99999999989470E-01  2.27098783393657E-05
  4.99999980911103E-01  2.49999999994735E-01  2.27098783393657E-05
  4.99999980911103E-01  7.49999999984206E-01  2.27098783393657E-05
 -1.90863372341242E-08  4.99999999989470E-01  3.57648554795198E-01
 Cartesian forces (fcart) [Ha/bohr]; max,rms= 2.90187E-03 2.90187E-03 (free atoms)
  9.36387084951687E-04 -0.00000000000000E+00  5.12771026320565E-04
 -5.30951241496466E-05 -0.00000000000000E+00 -2.75417933636974E-03
 -3.84422346350349E-04 -1.62766631292578E-03  1.00869607411796E-03
 -3.84422346350349E-04  1.62766631292578E-03  1.00869607411796E-03
 -4.23201058276570E-04  2.42038668162375E-04  1.51109933804897E-03
 -4.23201058276570E-04 -2.42038668162375E-04  1.51109933804897E-03
  5.68670884622746E-04 -0.00000000000000E+00  3.36648900573759E-04
  3.41156968444565E-05 -0.00000000000000E+00 -1.70193955724081E-03
  4.61709984616162E-05 -0.00000000000000E+00  1.02958101329944E-04
  2.25028432443839E-04 -0.00000000000000E+00 -4.22459383424133E-04
 -1.10920219463025E-04  2.42377061215472E-04  3.07931673935574E-04
 -1.10920219463025E-04 -2.42377061215472E-04  3.07931673935574E-04
 -6.58101973663604E-05 -0.00000000000000E+00 -8.06626559405633E-06
  4.91681924284749E-05 -0.00000000000000E+00  1.26184482359197E-04
  5.47081561547374E-06  1.16700934236974E-05  2.51306432259971E-04
  5.47081561547374E-06 -1.16700934236974E-05  2.51306432259971E-04
  2.49212331511954E-05  2.79648850586472E-05 -5.01530698512167E-04
  2.49212331511954E-05 -2.79648850586472E-05 -5.01530698512167E-04
 -3.49214139747312E-05 -0.00000000000000E+00 -4.80972813547536E-04
 -8.68904705568877E-06 -0.00000000000000E+00 -4.95114185320204E-04
  2.31538998181911E-05 -0.00000000000000E+00  1.31052041799755E-03
  2.07750763140464E-05 -0.00000000000000E+00  1.32925143290025E-03
 -1.52260769286838E-05 -1.49893802073286E-05  1.34517643096229E-03
 -1.52260769286838E-05  1.49893802073286E-05  1.34517643096229E-03
  1.66687540533290E-06 -0.00000000000000E+00 -6.94713604642594E-04
  2.17170344369746E-06 -0.00000000000000E+00 -6.97488502345595E-04
 -6.58422352734107E-06  3.81831011813228E-06 -7.03442454186752E-04
 -6.58422352734107E-06 -3.81831011813228E-06 -7.03442454186752E-04
  7.51306893709396E-05 -0.00000000000000E+00 -2.90187430624829E-03
 Gradient of E wrt nuclear positions in reduced coordinates (gred)
 -8.77973712327044E-03 -0.00000000000000E+00 -4.26685160617318E-02
  4.97829626286822E-04  0.00000000000000E+00  2.29179768783026E-01
  3.60441445584550E-03  1.76222291741855E-02 -8.39352506882896E-02
  3.60441445584550E-03 -1.76222291741855E-02 -8.39352506882896E-02
  3.96801077425138E-03 -2.62047622752913E-03 -1.25741048278548E-01
  3.96801077425138E-03  2.62047622752913E-03 -1.25741048278548E-01
 -5.33196255788060E-03 -0.00000000000000E+00 -2.80131058191181E-02
 -3.19875033397079E-04 -0.00000000000000E+00  1.41621175157481E-01
 -4.32907753349492E-04 -0.00000000000000E+00 -8.56731206481181E-03
 -2.10990787236292E-03 -0.00000000000000E+00  3.51535364944605E-02
  1.04000833009254E-03 -2.62413990225489E-03 -2.56234984053525E-02
  1.04000833009254E-03  2.62413990225489E-03 -2.56234984053525E-02
  6.17048485816098E-04  0.00000000000000E+00  6.71207157564753E-04
 -4.61009993928588E-04 -0.00000000000000E+00 -1.05000172317045E-02
 -5.12953710336795E-05 -1.26348416234579E-04 -2.09116193990991E-02
 -5.12953710336795E-05  1.26348416234579E-04 -2.09116193990991E-02
 -2.33666054745424E-04 -3.02766979582816E-04  4.17331899941237E-02
 -2.33666054745424E-04  3.02766979582816E-04  4.17331899941237E-02
  3.27429585049073E-04  0.00000000000000E+00  4.00225347507828E-02
  8.14700995204461E-05  0.00000000000000E+00  4.11992614331516E-02
 -2.17095213132660E-04 -0.00000000000000E+00 -1.09050548167280E-01
 -1.94790927474849E-04 -0.00000000000000E+00 -1.10609186563764E-01
  1.42762491068994E-04  1.62285286053340E-04 -1.11934331707921E-01
  1.42762491068994E-04 -1.62285286053340E-04 -1.11934331707921E-01
 -1.56289296502021E-05 -0.00000000000000E+00  5.78082556861643E-02
 -2.03622899672400E-05 -0.00000000000000E+00  5.80391594641328E-02
  6.17348879111138E-05 -4.13396378763209E-05  5.85345975382925E-02
  6.17348879111138E-05  4.13396378763209E-05  5.85345975382925E-02
 -7.04439129039218E-04 -0.00000000000000E+00  2.41469708875235E-01
 Total energy (etotal) [Ha]= -8.13596228093320E+01

 Difference of energy with previous step (new-old):
           Absolute (Ha)=-1.38655E-05
           Relative     =-1.70423E-07

--- Iteration: (  3/300) Internal Cycle: (1/1)
--------------------------------------------------------------------------------

---SELF-CONSISTENT-FIELD CONVERGENCE--------------------------------------------

--- !BeginCycle
iteration_state: {dtset: 1, itime: 3, icycle: 1, }
solver: {iscf: 17, nstep: 300, nline: 4, wfoptalg: 0, }
tolerances: {toldfe: 1.00E-07, }
...

     iter   Etot(hartree)      deltaE(h)  residm     nres2
 ETOT  1  -81.359738252480    -8.136E+01 8.462E-06 2.731E-02
 ETOT  2  -81.359601056021     1.372E-04 2.711E-05 4.987E-03
 ETOT  3  -81.359587808548     1.325E-05 3.198E-05 8.226E-04
 ETOT  4  -81.359601761148    -1.395E-05 1.736E-05 2.075E-04
 ETOT  5  -81.359630935886    -2.917E-05 1.001E-05 1.505E-05
 ETOT  6  -81.359637544203    -6.608E-06 2.066E-05 1.469E-07
 ETOT  7  -81.359637687143    -1.429E-07 5.572E-06 4.913E-08
 ETOT  8  -81.359637716131    -2.899E-08 8.621E-06 1.008E-08
 ETOT  9  -81.359637740049    -2.392E-08 6.706E-06 1.649E-09

 At SCF step    9, etot is converged : 
  for the second time, diff in etot=  2.392E-08 < toldfe=  1.000E-07

 Cartesian components of stress tensor (hartree/bohr^3)
  sigma(1 1)=  2.19477604E-05  sigma(3 2)=  0.00000000E+00
  sigma(2 2)=  2.33937832E-05  sigma(3 1)= -9.64521638E-08
  sigma(3 3)=  3.36781228E-06  sigma(2 1)=  0.00000000E+00


--- !ResultsGS
iteration_state: {dtset: 1, itime: 3, icycle: 1, }
comment   : Summary of ground state results
lattice_vectors:
- [  9.3761835,   0.0000000,   0.0000000, ]
- [  0.0000000,  10.8266842,   0.0000000, ]
- [  0.0000000,   0.0000000,  83.2116361, ]
lattice_lengths: [   9.37618,   10.82668,   83.21164, ]
lattice_angles: [ 90.000,  90.000,  90.000, ] # degrees, (23, 13, 12)
lattice_volume:   8.4470610E+03
convergence: {deltae: -2.392E-08, res2:  1.649E-09, residm:  6.706E-06, diffor: null, }
etotal    :  -8.13596377E+01
entropy   :   0.00000000E+00
fermie    :  -2.36123240E-02
cartesian_stress_tensor: # hartree/bohr^3
- [  2.19477604E-05,   0.00000000E+00,  -9.64521638E-08, ]
- [  0.00000000E+00,   2.33937832E-05,   0.00000000E+00, ]
- [ -9.64521638E-08,   0.00000000E+00,   3.36781228E-06, ]
pressure_GPa:  -4.7769E-01
xred      :
- [ -1.9086E-08,  -1.0530E-11,   3.1929E-01, Al]
- [ -1.9086E-08,   5.0000E-01,   3.1929E-01, Al]
- [  5.0000E-01,   2.5000E-01,   3.1929E-01, Al]
- [  5.0000E-01,   7.5000E-01,   3.1929E-01, Al]
- [  1.6667E-01,   2.5000E-01,   2.6568E-01, Al]
- [  1.6667E-01,   7.5000E-01,   2.6568E-01, Al]
- [  6.6667E-01,   5.0000E-01,   2.6568E-01, Al]
- [  6.6667E-01,  -1.0530E-11,   2.6568E-01, Al]
- [  3.3333E-01,  -1.0530E-11,   2.1265E-01, Al]
- [  3.3333E-01,   5.0000E-01,   2.1265E-01, Al]
- [  8.3333E-01,   2.5000E-01,   2.1265E-01, Al]
- [  8.3333E-01,   7.5000E-01,   2.1265E-01, Al]
- [ -1.9086E-08,  -1.0530E-11,   1.5943E-01, Al]
- [ -1.9086E-08,   5.0000E-01,   1.5943E-01, Al]
- [  5.0000E-01,   2.5000E-01,   1.5943E-01, Al]
- [  5.0000E-01,   7.5000E-01,   1.5943E-01, Al]
- [  1.6667E-01,   2.5000E-01,   1.0623E-01, Al]
- [  1.6667E-01,   7.5000E-01,   1.0623E-01, Al]
- [  6.6667E-01,  -1.0530E-11,   1.0623E-01, Al]
- [  6.6667E-01,   5.0000E-01,   1.0623E-01, Al]
- [  3.3333E-01,  -1.0530E-11,   5.3117E-02, Al]
- [  3.3333E-01,   5.0000E-01,   5.3117E-02, Al]
- [  8.3333E-01,   2.5000E-01,   5.3117E-02, Al]
- [  8.3333E-01,   7.5000E-01,   5.3117E-02, Al]
- [ -1.9086E-08,  -1.0530E-11,   2.2710E-05, Al]
- [ -1.9086E-08,   5.0000E-01,   2.2710E-05, Al]
- [  5.0000E-01,   2.5000E-01,   2.2710E-05, Al]
- [  5.0000E-01,   7.5000E-01,   2.2710E-05, Al]
- [ -1.9086E-08,   5.0000E-01,   3.5752E-01,  O]
cartesian_forces: # hartree/bohr
- [  9.44542830E-04,  -0.00000000E+00,   4.75415022E-04, ]
- [ -5.18813329E-05,  -0.00000000E+00,  -5.64515581E-03, ]
- [ -3.88424475E-04,  -1.64820097E-03,   9.76398990E-04, ]
- [ -3.88424475E-04,   1.64820097E-03,   9.76398990E-04, ]
- [ -4.26665025E-04,   2.42009838E-04,   1.51808732E-03, ]
- [ -4.26665025E-04,  -2.42009838E-04,   1.51808732E-03, ]
- [  5.69331715E-04,  -0.00000000E+00,   3.37919954E-04, ]
- [  3.75217714E-05,  -0.00000000E+00,  -1.70354429E-03, ]
- [  4.62670797E-05,  -0.00000000E+00,   1.02102629E-04, ]
- [  2.26009050E-04,  -0.00000000E+00,  -4.22794467E-04, ]
- [ -1.11300252E-04,   2.44005090E-04,   3.09990269E-04, ]
- [ -1.11300252E-04,  -2.44005090E-04,   3.09990269E-04, ]
- [ -6.56156603E-05,  -0.00000000E+00,  -8.58453084E-06, ]
- [  4.94694646E-05,  -0.00000000E+00,   1.27893277E-04, ]
- [  5.17691937E-06,   1.15784428E-05,   2.51473653E-04, ]
- [  5.17691937E-06,  -1.15784428E-05,   2.51473653E-04, ]
- [  2.48453449E-05,   2.81536928E-05,  -5.01172050E-04, ]
- [  2.48453449E-05,  -2.81536928E-05,  -5.01172050E-04, ]
- [ -3.48708150E-05,  -0.00000000E+00,  -4.80651824E-04, ]
- [ -8.36885861E-06,  -0.00000000E+00,  -4.95182160E-04, ]
- [  2.31336546E-05,  -0.00000000E+00,   1.31133683E-03, ]
- [  2.08949266E-05,  -0.00000000E+00,   1.32962709E-03, ]
- [ -1.53061446E-05,  -1.49317120E-05,   1.34571965E-03, ]
- [ -1.53061446E-05,   1.49317120E-05,   1.34571965E-03, ]
- [  1.64329085E-06,  -0.00000000E+00,  -6.94210004E-04, ]
- [  2.18805658E-06,  -0.00000000E+00,  -6.97047113E-04, ]
- [ -6.58208648E-06,   3.97746660E-06,  -7.02822898E-04, ]
- [ -6.58208648E-06,  -3.97746660E-06,  -7.02822898E-04, ]
- [  7.62462630E-05,  -0.00000000E+00,   6.75255242E-05, ]
force_length_stats: {min:   6.61748369E-05, max:   5.64539421E-03, mean:   9.82808266E-04, }
...

 Integrated electronic density in atomic spheres:
 ------------------------------------------------
 Atom  Sphere_radius  Integrated_density
    1        2.00000          0.84326571
    2        2.00000          1.03523244
    3        2.00000          0.84314433
    4        2.00000          0.84314433
    5        2.00000          0.87396635
    6        2.00000          0.87396635
    7        2.00000          0.87480328
    8        2.00000          0.87664386
    9        2.00000          0.88266471
   10        2.00000          0.88250818
   11        2.00000          0.88177684
   12        2.00000          0.88177684
   13        2.00000          0.87545135
   14        2.00000          0.87550904
   15        2.00000          0.87538120
   16        2.00000          0.87538120
   17        2.00000          0.88080765
   18        2.00000          0.88080765
   19        2.00000          0.88074534
   20        2.00000          0.88093070
   21        2.00000          0.87522531
   22        2.00000          0.87516944
   23        2.00000          0.87517405
   24        2.00000          0.87517405
   25        2.00000          0.85215578
   26        2.00000          0.85211215
   27        2.00000          0.85215489
   28        2.00000          0.85215489
   29        2.00000          5.96035312

---OUTPUT-----------------------------------------------------------------------

 Cartesian coordinates (xcart) [bohr]
 -1.78957000000000E-07 -1.14001008352399E-10  2.65688092207560E+01
 -1.78957000000000E-07  5.41334210638600E+00  2.65688092207560E+01
  4.68809156446900E+00  2.70667105319300E+00  2.65688092207560E+01
  4.68809156446900E+00  8.12001315957900E+00  2.65688092207560E+01
  1.56269694950300E+00  2.70667105319300E+00  2.21075497491130E+01
  1.56269694950300E+00  8.12001315957900E+00  2.21075497491130E+01
  6.25078869291000E+00  5.41334210638600E+00  2.21075497491130E+01
  6.25078869291000E+00 -1.14001008352399E-10  2.21075497491130E+01
  3.12539407792500E+00 -1.14001008352399E-10  1.76951119279120E+01
  3.12539407792500E+00  5.41334210638600E+00  1.76951119279120E+01
  7.81348582135100E+00  2.70667105319300E+00  1.76951119279120E+01
  7.81348582135100E+00  8.12001315957900E+00  1.76951119279120E+01
 -1.78957000000000E-07 -1.14001008352399E-10  1.32663309918530E+01
 -1.78957000000000E-07  5.41334210638600E+00  1.32663309918530E+01
  4.68809156446900E+00  2.70667105319300E+00  1.32663309918530E+01
  4.68809156446900E+00  8.12001315957900E+00  1.32663309918530E+01
  1.56269694950300E+00  2.70667105319300E+00  8.83995004086500E+00
  1.56269694950300E+00  8.12001315957900E+00  8.83995004086500E+00
  6.25078869291000E+00 -1.14001008352399E-10  8.83995004086500E+00
  6.25078869291000E+00  5.41334210638600E+00  8.83995004086500E+00
  3.12539407792500E+00 -1.14001008352399E-10  4.41997502033800E+00
  3.12539407792500E+00  5.41334210638600E+00  4.41997502033800E+00
  7.81348582135100E+00  2.70667105319300E+00  4.41997502033800E+00
  7.81348582135100E+00  8.12001315957900E+00  4.41997502033800E+00
 -1.78957000000000E-07 -1.14001008352399E-10  1.88972613300000E-03
 -1.78957000000000E-07  5.41334210638600E+00  1.88972613300000E-03
  4.68809156446900E+00  2.70667105319300E+00  1.88972613300000E-03
  4.68809156446900E+00  8.12001315957900E+00  1.88972613300000E-03
 -1.78957000000000E-07  5.41334210638600E+00  2.97500235129700E+01
 Reduced coordinates (xred)
 -1.90863372341242E-08 -1.05296327213011E-11  3.19291993950103E-01
 -1.90863372341242E-08  4.99999999989470E-01  3.19291993950103E-01
  4.99999980911103E-01  2.49999999994735E-01  3.19291993950103E-01
  4.99999980911103E-01  7.49999999984206E-01  3.19291993950103E-01
  1.66666634850559E-01  2.49999999994735E-01  2.65678585069253E-01
  1.66666634850559E-01  7.49999999984206E-01  2.65678585069253E-01
  6.66666634845972E-01  4.99999999989470E-01  2.65678585069253E-01
  6.66666634845972E-01 -1.05296327213011E-11  2.65678585069253E-01
  3.33333288783402E-01 -1.05296327213011E-11  2.12651892814958E-01
  3.33333288783402E-01  4.99999999989470E-01  2.12651892814958E-01
  8.33333288780842E-01  2.49999999994735E-01  2.12651892814958E-01
  8.33333288780842E-01  7.49999999984206E-01  2.12651892814958E-01
 -1.90863372341242E-08 -1.05296327213011E-11  1.59428796360271E-01
 -1.90863372341242E-08  4.99999999989470E-01  1.59428796360271E-01
  4.99999980911103E-01  2.49999999994735E-01  1.59428796360271E-01
  4.99999980911103E-01  7.49999999984206E-01  1.59428796360271E-01
  1.66666634850559E-01  2.49999999994735E-01  1.06234541846237E-01
  1.66666634850559E-01  7.49999999984206E-01  1.06234541846237E-01
  6.66666634845972E-01 -1.05296327213011E-11  1.06234541846237E-01
  6.66666634845972E-01  4.99999999989470E-01  1.06234541846237E-01
  3.33333288783402E-01 -1.05296327213011E-11  5.31172709219826E-02
  3.33333288783402E-01  4.99999999989470E-01  5.31172709219826E-02
  8.33333288780842E-01  2.49999999994735E-01  5.31172709219826E-02
  8.33333288780842E-01  7.49999999984206E-01  5.31172709219826E-02
 -1.90863372341242E-08 -1.05296327213011E-11  2.27098783393657E-05
 -1.90863372341242E-08  4.99999999989470E-01  2.27098783393657E-05
  4.99999980911103E-01  2.49999999994735E-01  2.27098783393657E-05
  4.99999980911103E-01  7.49999999984206E-01  2.27098783393657E-05
 -1.90863372341242E-08  4.99999999989470E-01  3.57522395851218E-01
 Cartesian forces (fcart) [Ha/bohr]; max,rms= 6.75255E-05 6.75255E-05 (free atoms)
  9.44542830272584E-04 -0.00000000000000E+00  4.75415022344046E-04
 -5.18813328769402E-05 -0.00000000000000E+00 -5.64515581262208E-03
 -3.88424474662301E-04 -1.64820096520483E-03  9.76398990234873E-04
 -3.88424474662301E-04  1.64820096520483E-03  9.76398990234873E-04
 -4.26665025038286E-04  2.42009837931400E-04  1.51808732171353E-03
 -4.26665025038286E-04 -2.42009837931400E-04  1.51808732171353E-03
  5.69331715114643E-04 -0.00000000000000E+00  3.37919954415251E-04
  3.75217713780736E-05 -0.00000000000000E+00 -1.70354428802697E-03
  4.62670797234513E-05 -0.00000000000000E+00  1.02102629238111E-04
  2.26009050269334E-04 -0.00000000000000E+00 -4.22794466845775E-04
 -1.11300251517313E-04  2.44005090296343E-04  3.09990269215715E-04
 -1.11300251517313E-04 -2.44005090296343E-04  3.09990269215715E-04
 -6.56156602741639E-05 -0.00000000000000E+00 -8.58453083683761E-06
  4.94694645540304E-05 -0.00000000000000E+00  1.27893276719734E-04
  5.17691937251745E-06  1.15784427559462E-05  2.51473653128266E-04
  5.17691937251745E-06 -1.15784427559462E-05  2.51473653128266E-04
  2.48453448560920E-05  2.81536928415265E-05 -5.01172050220082E-04
  2.48453448560920E-05 -2.81536928415265E-05 -5.01172050220082E-04
 -3.48708149856090E-05 -0.00000000000000E+00 -4.80651824194057E-04
 -8.36885860851757E-06 -0.00000000000000E+00 -4.95182159505738E-04
  2.31336546099486E-05 -0.00000000000000E+00  1.31133683058234E-03
  2.08949265811598E-05 -0.00000000000000E+00  1.32962709087375E-03
 -1.53061446118895E-05 -1.49317120190914E-05  1.34571964896983E-03
 -1.53061446118895E-05  1.49317120190914E-05  1.34571964896983E-03
  1.64329084703597E-06 -0.00000000000000E+00 -6.94210003650089E-04
[...]
                       2.000000  2.000000  2.000000  2.000000  2.000000  2.000000
                       2.000000  1.999999  1.999995  1.999994  1.999987  1.999977
                       1.999929  1.999840  1.999684  1.999275  1.998847  1.997438
                       1.996983  1.988934  1.983048  1.964151  1.938892  1.875088
                       1.785212  1.624031  1.442861  1.422273  1.130300  0.976628
                       0.792280  0.431785  0.341106  0.228244  0.141829  0.051521
                       0.022974  0.017595  0.007441  0.002039  0.000739  0.000325
                       0.000105  0.000015  0.000008  0.000004  0.000001  0.000000
                       0.000000  0.000000  0.000000  0.000000  0.000000  0.000000
                       0.000000  0.000000  0.000000  0.000000  0.000000  0.000000
                       0.000000  0.000000  0.000000  0.000000
                       2.000000  2.000000  2.000000  2.000000  2.000000  2.000000
                       2.000000  2.000000  2.000000  2.000000  2.000000  2.000000
                       2.000000  2.000000  2.000000  2.000000  2.000000  2.000000
                       2.000000  2.000000  2.000000  2.000000  2.000000  2.000000
                       2.000000  2.000000  1.999998  1.999964  1.999862  1.999072
                       1.998241  1.996501  1.991064  1.979254  1.962877  1.941433
                       1.888051  1.784348  1.711792  1.619941  1.475332  1.173243
                       1.082787  0.983174  0.772563  0.670414  0.421577  0.256073
                       0.210637  0.146847  0.118737  0.097432  0.044942  0.036469
                       0.018345  0.011130  0.004927  0.003408  0.000468  0.000293
                       0.000106  0.000039  0.000017  0.000003  0.000001  0.000001
                       0.000000  0.000000  0.000000  0.000000  0.000000  0.000000
                       0.000000  0.000000  0.000000  0.000000  0.000000  0.000000
                       0.000000  0.000000  0.000000  0.000000
                       2.000000  2.000000  2.000000  2.000000  2.000000  2.000000
                       2.000000  2.000000  2.000000  2.000000  2.000000  2.000000
                       2.000000  2.000000  2.000000  2.000000  2.000000  2.000000
                       2.000000  2.000000  2.000000  2.000000  2.000000  2.000000
                       2.000000  2.000000  2.000000  1.999998  1.999930  1.999858
                       1.997903  1.995572  1.980507  1.960834  1.914661  1.823709
                       1.798905  1.415311  1.277304  1.052963  0.908490  0.740057
                       0.364716  0.252979  0.179934  0.090987  0.079918  0.025987
                       0.014058  0.012500  0.008188  0.004698  0.002778  0.001454
                       0.000450  0.000351  0.000189  0.000032  0.000027  0.000017
                       0.000009  0.000006  0.000002  0.000001  0.000000  0.000000
                       0.000000  0.000000  0.000000  0.000000  0.000000  0.000000
                       0.000000  0.000000  0.000000  0.000000  0.000000  0.000000
                       0.000000  0.000000  0.000000  0.000000
                       2.000000  2.000000  2.000000  2.000000  2.000000  2.000000
                       2.000000  2.000000  2.000000  2.000000  2.000000  2.000000
                       2.000000  2.000000  2.000000  2.000000  2.000000  2.000000
                       2.000000  2.000000  2.000000  2.000000  2.000000  2.000000
                       2.000000  2.000000  2.000000  1.999998  1.999930  1.999858
                       1.997903  1.995572  1.980507  1.960834  1.914661  1.823709
                       1.798905  1.415311  1.277304  1.052963  0.908490  0.740057
                       0.364716  0.252979  0.179934  0.090987  0.079918  0.025987
                       0.014058  0.012500  0.008188  0.004698  0.002778  0.001454
                       0.000450  0.000351  0.000189  0.000032  0.000027  0.000017
                       0.000009  0.000006  0.000002  0.000001  0.000000  0.000000
                       0.000000  0.000000  0.000000  0.000000  0.000000  0.000000
                       0.000000  0.000000  0.000000  0.000000  0.000000  0.000000
                       0.000000  0.000000  0.000000  0.000000
                       2.000000  2.000000  2.000000  2.000000  2.000000  2.000000
                       2.000000  2.000000  2.000000  2.000000  2.000000  2.000000
                       2.000000  2.000000  2.000000  2.000000  2.000000  2.000000
                       2.000000  2.000000  2.000000  2.000000  2.000000  2.000000
                       2.000000  2.000000  1.999998  1.999964  1.999862  1.999072
                       1.998241  1.996501  1.991064  1.979254  1.962876  1.941433
                       1.888051  1.784347  1.711793  1.619941  1.475331  1.173243
                       1.082786  0.983174  0.772563  0.670414  0.421577  0.256073
                       0.210637  0.146847  0.118737  0.097432  0.044942  0.036469
                       0.018345  0.011130  0.004927  0.003408  0.000468  0.000293
                       0.000106  0.000039  0.000017  0.000003  0.000001  0.000001
                       0.000000  0.000000  0.000000  0.000000  0.000000  0.000000
                       0.000000  0.000000  0.000000  0.000000  0.000000  0.000000
                       0.000000  0.000000  0.000000  0.000000
                       2.000000  2.000000  2.000000  2.000000  2.000000  2.000000
                       2.000000  2.000000  2.000000  2.000000  2.000000  2.000000
                       2.000000  2.000000  2.000000  2.000000  2.000000  2.000000
                       2.000000  2.000000  2.000000  2.000000  2.000000  2.000000
                       2.000000  1.999999  1.999995  1.999994  1.999987  1.999977
                       1.999929  1.999840  1.999684  1.999275  1.998847  1.997438
                       1.996983  1.988934  1.983048  1.964151  1.938892  1.875088
                       1.785211  1.624031  1.442861  1.422274  1.130300  0.976628
                       0.792279  0.431785  0.341106  0.228244  0.141829  0.051521
                       0.022974  0.017595  0.007441  0.002039  0.000739  0.000325
                       0.000105  0.000015  0.000008  0.000004  0.000001  0.000000
                       0.000000  0.000000  0.000000  0.000000  0.000000  0.000000
                       0.000000  0.000000  0.000000  0.000000  0.000000  0.000000
                       0.000000  0.000000  0.000000  0.000000
           occopt           7
           prtden           0
            prtwf           0
           shiftk      5.00000000E-01  5.00000000E-01  5.00000000E-01
          spgroup           6
           strten      2.1947760448E-05  2.3393783236E-05  3.3678122824E-06
                       0.0000000000E+00 -9.6452163780E-08  0.0000000000E+00
           symrel      1  0  0   0  1  0   0  0  1       1  0  0   0 -1  0   0  0  1
            tnons      0.0000000  0.0000000  0.0000000     0.0000000 -0.0000000  0.0000000
           toldfe      1.00000000E-07 Hartree
          tolmxde      1.00000000E-04 Hartree
           tolmxf      0.00000000E+00
           tsmear      3.00000000E-02 Hartree
            typat      1  1  1  1  1  1  1  1  1  1  1  1  1  1  1  1  1  1  1  1
                       1  1  1  1  1  1  1  1  2
              wtk        0.05556    0.05556    0.05556    0.05556    0.05556    0.05556
                         0.05556    0.05556    0.05556    0.05556    0.05556    0.05556
                         0.05556    0.05556    0.05556    0.05556    0.05556    0.05556
           xangst     -9.4699965718E-08 -6.0326735376E-11  1.4059608299E+01
                      -9.4699965718E-08  2.8646172650E+00  1.4059608299E+01
                       2.4808312077E+00  1.4323086325E+00  1.4059608299E+01
                       2.4808312077E+00  4.2969258975E+00  1.4059608299E+01
                       8.2694360961E-01  1.4323086325E+00  1.1698811465E+01
                       8.2694360961E-01  4.2969258975E+00  1.1698811465E+01
                       3.3077749120E+00  2.8646172650E+00  1.1698811465E+01
                       3.3077749120E+00 -6.0326735376E-11  1.1698811465E+01
                       1.6538873139E+00 -6.0326735376E-11  9.3638499357E+00
                       1.6538873139E+00  2.8646172650E+00  9.3638499357E+00
                       4.1347186163E+00  1.4323086325E+00  9.3638499357E+00
                       4.1347186163E+00  4.2969258975E+00  9.3638499357E+00
                      -9.4699965718E-08 -6.0326735376E-11  7.0202400025E+00
                      -9.4699965718E-08  2.8646172650E+00  7.0202400025E+00
                       2.4808312077E+00  1.4323086325E+00  7.0202400025E+00
                       2.4808312077E+00  4.2969258975E+00  7.0202400025E+00
                       8.2694360961E-01  1.4323086325E+00  4.6779000867E+00
                       8.2694360961E-01  4.2969258975E+00  4.6779000867E+00
                       3.3077749120E+00 -6.0326735376E-11  4.6779000867E+00
                       3.3077749120E+00  2.8646172650E+00  4.6779000867E+00
                       1.6538873139E+00 -6.0326735376E-11  2.3389500433E+00
                       1.6538873139E+00  2.8646172650E+00  2.3389500433E+00
                       4.1347186163E+00  1.4323086325E+00  2.3389500433E+00
                       4.1347186163E+00  4.2969258975E+00  2.3389500433E+00
                      -9.4699965718E-08 -6.0326735376E-11  1.0000000001E-03
                      -9.4699965718E-08  2.8646172650E+00  1.0000000001E-03
                       2.4808312077E+00  1.4323086325E+00  1.0000000001E-03
                       2.4808312077E+00  4.2969258975E+00  1.0000000001E-03
                      -9.4699965718E-08  2.8646172650E+00  1.5743034398E+01
            xcart     -1.7895700000E-07 -1.1400100835E-10  2.6568809221E+01
                      -1.7895700000E-07  5.4133421064E+00  2.6568809221E+01
                       4.6880915645E+00  2.7066710532E+00  2.6568809221E+01
                       4.6880915645E+00  8.1200131596E+00  2.6568809221E+01
                       1.5626969495E+00  2.7066710532E+00  2.2107549749E+01
                       1.5626969495E+00  8.1200131596E+00  2.2107549749E+01
                       6.2507886929E+00  5.4133421064E+00  2.2107549749E+01
                       6.2507886929E+00 -1.1400100835E-10  2.2107549749E+01
                       3.1253940779E+00 -1.1400100835E-10  1.7695111928E+01
                       3.1253940779E+00  5.4133421064E+00  1.7695111928E+01
                       7.8134858214E+00  2.7066710532E+00  1.7695111928E+01
                       7.8134858214E+00  8.1200131596E+00  1.7695111928E+01
                      -1.7895700000E-07 -1.1400100835E-10  1.3266330992E+01
                      -1.7895700000E-07  5.4133421064E+00  1.3266330992E+01
                       4.6880915645E+00  2.7066710532E+00  1.3266330992E+01
                       4.6880915645E+00  8.1200131596E+00  1.3266330992E+01
                       1.5626969495E+00  2.7066710532E+00  8.8399500409E+00
                       1.5626969495E+00  8.1200131596E+00  8.8399500409E+00
                       6.2507886929E+00 -1.1400100835E-10  8.8399500409E+00
                       6.2507886929E+00  5.4133421064E+00  8.8399500409E+00
                       3.1253940779E+00 -1.1400100835E-10  4.4199750203E+00
                       3.1253940779E+00  5.4133421064E+00  4.4199750203E+00
                       7.8134858214E+00  2.7066710532E+00  4.4199750203E+00
                       7.8134858214E+00  8.1200131596E+00  4.4199750203E+00
                      -1.7895700000E-07 -1.1400100835E-10  1.8897261330E-03
                      -1.7895700000E-07  5.4133421064E+00  1.8897261330E-03
                       4.6880915645E+00  2.7066710532E+00  1.8897261330E-03
                       4.6880915645E+00  8.1200131596E+00  1.8897261330E-03
                      -1.7895700000E-07  5.4133421064E+00  2.9750023513E+01
             xred     -1.9086337234E-08 -1.0529632721E-11  3.1929199395E-01
                      -1.9086337234E-08  4.9999999999E-01  3.1929199395E-01
                       4.9999998091E-01  2.4999999999E-01  3.1929199395E-01
                       4.9999998091E-01  7.4999999998E-01  3.1929199395E-01
                       1.6666663485E-01  2.4999999999E-01  2.6567858507E-01
                       1.6666663485E-01  7.4999999998E-01  2.6567858507E-01
                       6.6666663485E-01  4.9999999999E-01  2.6567858507E-01
                       6.6666663485E-01 -1.0529632721E-11  2.6567858507E-01
                       3.3333328878E-01 -1.0529632721E-11  2.1265189281E-01
                       3.3333328878E-01  4.9999999999E-01  2.1265189281E-01
                       8.3333328878E-01  2.4999999999E-01  2.1265189281E-01
                       8.3333328878E-01  7.4999999998E-01  2.1265189281E-01
                      -1.9086337234E-08 -1.0529632721E-11  1.5942879636E-01
                      -1.9086337234E-08  4.9999999999E-01  1.5942879636E-01
                       4.9999998091E-01  2.4999999999E-01  1.5942879636E-01
                       4.9999998091E-01  7.4999999998E-01  1.5942879636E-01
                       1.6666663485E-01  2.4999999999E-01  1.0623454185E-01
                       1.6666663485E-01  7.4999999998E-01  1.0623454185E-01
                       6.6666663485E-01 -1.0529632721E-11  1.0623454185E-01
                       6.6666663485E-01  4.9999999999E-01  1.0623454185E-01
                       3.3333328878E-01 -1.0529632721E-11  5.3117270922E-02
                       3.3333328878E-01  4.9999999999E-01  5.3117270922E-02
                       8.3333328878E-01  2.4999999999E-01  5.3117270922E-02
                       8.3333328878E-01  7.4999999998E-01  5.3117270922E-02
                      -1.9086337234E-08 -1.0529632721E-11  2.2709878339E-05
                      -1.9086337234E-08  4.9999999999E-01  2.2709878339E-05
                       4.9999998091E-01  2.4999999999E-01  2.2709878339E-05
                       4.9999998091E-01  7.4999999998E-01  2.2709878339E-05
                      -1.9086337234E-08  4.9999999999E-01  3.5752239585E-01
            znucl       13.00000    8.00000

================================================================================


- Timing analysis has been suppressed with timopt=0



================================================================================

 Suggested references for the acknowledgment of ABINIT usage.

 The users of ABINIT have little formal obligations with respect to the ABINIT group
 (those specified in the GNU General Public License, http://www.gnu.org/copyleft/gpl.txt).
 However, it is common practice in the scientific literature,
 to acknowledge the efforts of people that have made the research possible.
 In this spirit, please find below suggested citations of work written by ABINIT developers,
 corresponding to implementations inside of ABINIT that you have used in the present run.
 Note also that it will be of great value to readers of publications presenting these results,
 to read papers enabling them to understand the theoretical formalism and details
 of the ABINIT implementation.
 For information on why they are suggested, see also https://docs.abinit.org/theory/acknowledgments.
-
- [1] Specification of an extensible and portable file format for electronic structure and crystallographic data
- X. Gonze, C.-O. Almbladh, A. Cucca, D. Caliste, C. Freysoldt, M. Marques, V. Olevano, Y. Pouillon, M.J. Verstraete,
- Comput. Material Science 43, 1056 (2008).
- Comment: to be cited in case the ETSF_IO file format is used, i.e. iomode=3.
- DOI and bibtex: see https://docs.abinit.org/theory/bibliography/#gonze2008
-
- [2] Preconditioning of self-consistent-field cycles in density functional theory: the extrapolar method
- P.-M. Anglade, X. Gonze, Phys. Rev. B 78, 045126 (2008).
- Comment: to be cited in case the extrapolar conditioner is used, i.e. non-vanishing iprcel.
- DOI and bibtex: see https://docs.abinit.org/theory/bibliography/#anglade2008
-
- [3] The Abinit project: Impact, environment and recent developments.
- Computer Phys. Comm. 248, 107042 (2020).
- X.Gonze, B. Amadon, G. Antonius, F.Arnardi, L.Baguet, J.-M.Beuken,
- J.Bieder, F.Bottin, J.Bouchet, E.Bousquet, N.Brouwer, F.Bruneval,
- G.Brunin, T.Cavignac, J.-B. Charraud, Wei Chen, M.Cote, S.Cottenier,
- J.Denier, G.Geneste, Ph.Ghosez, M.Giantomassi, Y.Gillet, O.Gingras,
- D.R.Hamann, G.Hautier, Xu He, N.Helbig, N.Holzwarth, Y.Jia, F.Jollet,
- W.Lafargue-Dit-Hauret, K.Lejaeghere, M.A.L.Marques, A.Martin, C.Martins,
- H.P.C. Miranda, F.Naccarato, K. Persson, G.Petretto, V.Planes, Y.Pouillon,
- S.Prokhorenko, F.Ricci, G.-M.Rignanese, A.H.Romero, M.M.Schmitt, M.Torrent,
- M.J.van Setten, B.Van Troeye, M.J.Verstraete, G.Zerah and J.W.Zwanzig
- Comment: the fifth generic paper describing the ABINIT project.
- Note that a version of this paper, that is not formatted for Computer Phys. Comm. 
- is available at https://www.abinit.org/sites/default/files/ABINIT20.pdf .
- The licence allows the authors to put it on the Web.
- DOI and bibtex: see https://docs.abinit.org/theory/bibliography/#gonze2020
-
- [4] Optimized norm-conserving Vanderbilt pseudopotentials.
- D.R. Hamann, Phys. Rev. B 88, 085117 (2013).
- Comment: Some pseudopotential generated using the ONCVPSP code were used.
- DOI and bibtex: see https://docs.abinit.org/theory/bibliography/#hamann2013
-
- [5] ABINIT: Overview, and focus on selected capabilities
- J. Chem. Phys. 152, 124102 (2020).
- A. Romero, D.C. Allan, B. Amadon, G. Antonius, T. Applencourt, L.Baguet,
- J.Bieder, F.Bottin, J.Bouchet, E.Bousquet, F.Bruneval,
- G.Brunin, D.Caliste, M.Cote,
- J.Denier, C. Dreyer, Ph.Ghosez, M.Giantomassi, Y.Gillet, O.Gingras,
- D.R.Hamann, G.Hautier, F.Jollet, G. Jomard,
- A.Martin, 
- H.P.C. Miranda, F.Naccarato, G.Petretto, N.A. Pike, V.Planes,
- S.Prokhorenko, T. Rangel, F.Ricci, G.-M.Rignanese, M.Royo, M.Stengel, M.Torrent,
- M.J.van Setten, B.Van Troeye, M.J.Verstraete, J.Wiktor, J.W.Zwanziger, and X.Gonze.
- Comment: a global overview of ABINIT, with focus on selected capabilities .
- Note that a version of this paper, that is not formatted for J. Chem. Phys 
- is available at https://www.abinit.org/sites/default/files/ABINIT20_JPC.pdf .
- The licence allows the authors to put it on the Web.
- DOI and bibtex: see https://docs.abinit.org/theory/bibliography/#romero2020
-
- [6] Recent developments in the ABINIT software package.
- Computer Phys. Comm. 205, 106 (2016).
- X.Gonze, F.Jollet, F.Abreu Araujo, D.Adams, B.Amadon, T.Applencourt,
- C.Audouze, J.-M.Beuken, J.Bieder, A.Bokhanchuk, E.Bousquet, F.Bruneval
- D.Caliste, M.Cote, F.Dahm, F.Da Pieve, M.Delaveau, M.Di Gennaro,
- B.Dorado, C.Espejo, G.Geneste, L.Genovese, A.Gerossier, M.Giantomassi,
- Y.Gillet, D.R.Hamann, L.He, G.Jomard, J.Laflamme Janssen, S.Le Roux,
- A.Levitt, A.Lherbier, F.Liu, I.Lukacevic, A.Martin, C.Martins,
- M.J.T.Oliveira, S.Ponce, Y.Pouillon, T.Rangel, G.-M.Rignanese,
- A.H.Romero, B.Rousseau, O.Rubel, A.A.Shukri, M.Stankovski, M.Torrent,
- M.J.Van Setten, B.Van Troeye, M.J.Verstraete, D.Waroquier, J.Wiktor,
- B.Xu, A.Zhou, J.W.Zwanziger.
- Comment: the fourth generic paper describing the ABINIT project.
- Note that a version of this paper, that is not formatted for Computer Phys. Comm. 
- is available at https://www.abinit.org/sites/default/files/ABINIT16.pdf .
- The licence allows the authors to put it on the Web.
- DOI and bibtex: see https://docs.abinit.org/theory/bibliography/#gonze2016
-
- Proc.   0 individual time (sec): cpu=       4603.0  wall=       4606.5

================================================================================

 Calculation completed.
.Delivered   0 WARNINGs and   3 COMMENTs to log file.
+Overall time at end (sec) : cpu=     110502.3  wall=     110551.7
