  ABINIT 9.10.3
  
PSEUDOS  found in environment, with value /beegfs-home/users/w.zhengqing/dft/nc_paw/psp-nc
-instrng: 54 lines of input have been read from file ../common.abi

-instrng: 3 lines of input have been read from file run.abi


 importxyz : Identified token XYZFILE, referring to file ../structures/al28o1s-181.xyz
 importxyz : Opened file ../structures/al28o1s-181.xyz; content stored in string_xyz

.Version 9.10.3 of ABINIT 
.(MPI version, prepared for a x86_64_linux_gnu7.3 computer) 

.Copyright (C) 1998-2022 ABINIT group . 
 ABINIT comes with ABSOLUTELY NO WARRANTY.
 It is free software, and you are welcome to redistribute it
 under certain conditions (GNU General Public License,
 see ~abinit/COPYING or http://www.gnu.org/copyleft/gpl.txt).

 ABINIT is a project of the Universite Catholique de Louvain,
 Corning Inc. and other collaborators, see ~abinit/doc/developers/contributors.txt .
 Please read https://docs.abinit.org/theory/acknowledgments for suggested
 acknowledgments of the ABINIT effort.
 For more information, see https://www.abinit.org .

.Starting date : Mon  2 Jun 2025.
- ( at 00h49 )
  

 ++++++++++++++++++++++++++++++++++++++++++++++++++++++++++++++++++++++++++++++

 === Build Information === 
  Version       : 9.10.3
  Build target  : x86_64_linux_gnu7.3
  Build date    : 20230816

 === Compiler Suite === 
  C compiler       : gnu7.3
  C++ compiler     : gnu7.3
  Fortran compiler : gnu7.3
  CFLAGS           : -g -O2
  CXXFLAGS         : -g -O2 -mtune=native -march=native
  FCFLAGS          : -g -ffree-line-length-none -fopenmp -fopenmp   -I/opt/ohpc/pub/libs ...
  FC_LDFLAGS       :    -fopenmp

 === Optimizations === 
  Debug level        : basic
  Optimization level : standard
  Architecture       : intel_xeon

 === Multicore === 
  Parallel build : yes
  Parallel I/O   : auto
  openMP support : yes
  GPU support    : 

 === Connectors / Fallbacks === 
  LINALG flavor  : mkl
  FFT flavor     : dfti
  HDF5           : yes
  NetCDF         : yes
  NetCDF Fortran : yes
  LibXC          : yes
  Wannier90      : yes

 === Experimental features === 
  Exports             : 
  GW double-precision : 

 ++++++++++++++++++++++++++++++++++++++++++++++++++++++++++++++++++++++++++++++


 ++++++++++++++++++++++++++++++++++++++++++++++++++++++++++++++++++++++++++++++
 Default optimizations:
   -O2 -mtune=native -march=native


 Optimizations for 43_ptgroups:
   -O0


 ++++++++++++++++++++++++++++++++++++++++++++++++++++++++++++++++++++++++++++++


 ++++++++++++++++++++++++++++++++++++++++++++++++++++++++++++++++++++++++++++++
 CPP options activated during the build:

                    CC_GNU                   CXX_GNU                    FC_GNU
 
                 HAVE_DFTI HAVE_FC_ALLOCATABLE_DT...             HAVE_FC_ASYNC
 
         HAVE_FC_BACKTRACE  HAVE_FC_COMMAND_ARGUMENT      HAVE_FC_COMMAND_LINE
 
        HAVE_FC_CONTIGUOUS           HAVE_FC_CPUTIME              HAVE_FC_EXIT
 
             HAVE_FC_FLUSH             HAVE_FC_GAMMA            HAVE_FC_GETENV
 
   HAVE_FC_IEEE_ARITHMETIC   HAVE_FC_IEEE_EXCEPTIONS          HAVE_FC_INT_QUAD
 
             HAVE_FC_IOMSG     HAVE_FC_ISO_C_BINDING  HAVE_FC_ISO_FORTRAN_2008
 
        HAVE_FC_LONG_LINES        HAVE_FC_MOVE_ALLOC  HAVE_FC_ON_THE_FLY_SHAPE
 
           HAVE_FC_PRIVATE         HAVE_FC_PROTECTED           HAVE_FC_SHIFTLR
 
         HAVE_FC_STREAM_IO            HAVE_FC_SYSTEM          HAVE_FORTRAN2003
 
                 HAVE_HDF5             HAVE_HDF5_MPI        HAVE_LIBPAW_ABINIT
 
              HAVE_LIBPSML      HAVE_LIBTETRA_ABINIT                HAVE_LIBXC
 
         HAVE_LINALG_AXPBY        HAVE_LINALG_GEMM3M         HAVE_LINALG_GEMMT
 
  HAVE_LINALG_MKL_IMATCOPY   HAVE_LINALG_MKL_OMATADD  HAVE_LINALG_MKL_OMATCOPY
 
   HAVE_LINALG_MKL_THREADS     HAVE_LINALG_SCALAPACK                  HAVE_MPI
 
                 HAVE_MPI2       HAVE_MPI_IALLGATHER       HAVE_MPI_IALLREDUCE
 
        HAVE_MPI_IALLTOALL       HAVE_MPI_IALLTOALLV           HAVE_MPI_IBCAST
 
         HAVE_MPI_IGATHERV        HAVE_MPI_INTEGER16               HAVE_MPI_IO
 
 HAVE_MPI_TYPE_CREATE_S...               HAVE_NETCDF       HAVE_NETCDF_DEFAULT
 
       HAVE_NETCDF_FORTRAN   HAVE_NETCDF_FORTRAN_MPI           HAVE_NETCDF_MPI
 
         HAVE_OMP_COLLAPSE               HAVE_OPENMP             HAVE_OS_LINUX
 
         HAVE_TIMER_ABINIT            HAVE_WANNIER90                  HAVE_XML
 
               HAVE_XMLF90                                                      
 ++++++++++++++++++++++++++++++++++++++++++++++++++++++++++++++++++++++++++++++

- input  file    -> run.abi
- output file    -> run.abo
- root for input  files -> runi
- root for output files -> runo

 Netcdf library supports MPI-IO
PSEUDOS  found in environment, with value /beegfs-home/users/w.zhengqing/dft/nc_paw/psp-nc
-instrng: 54 lines of input have been read from file ../common.abi

-instrng: 3 lines of input have been read from file run.abi


 importxyz : Identified token XYZFILE, referring to file ../structures/al28o1s-181.xyz
 importxyz : Opened file ../structures/al28o1s-181.xyz; content stored in string_xyz
 For atom type 1, psp file is /beegfs-home/users/w.zhengqing/dft/nc_paw/psp-nc/Al.psp8
 For atom type 2, psp file is /beegfs-home/users/w.zhengqing/dft/nc_paw/psp-nc/O.psp8
  read the values zionpsp=  3.0 , pspcod=   8 , lmax=   2
  read the values zionpsp=  6.0 , pspcod=   8 , lmax=   2

 inpspheads: deduce mpsang = 3, n1xccc = 2501.

======================================================= 
 invars1m : enter jdtset= 0

 symlatt: the Bravais lattice is oP (primitive orthorhombic)
  xcart  is defined in input file (possibly in Angstrom)
 ingeo: takes atomic coordinates from input array xcart

--- !COMMENT
src_file: m_ingeo.F90
src_line: 890
message: |
    The tolerance on symmetries =   1.000E-05 is bigger than 1.0e-8.
    In order to avoid spurious effects, the atomic coordinates have been
    symmetrized before storing them in the dataset internal variable.
    So, do not be surprised by the fact that your input variables (xcart, xred, ...)
    do not correspond exactly to the ones echoed by ABINIT, the latter being used to do the calculations.
    This is not a problem per se.
    Still, in order to avoid this symmetrization (e.g. for specific debugging/development), decrease tolsym to 1.0e-8 or lower,
    or (much preferred) use input primitive vectors that are accurate to better than 1.0e-8.
    This message will only be printed once, even if there are other datasets where tolsym is bigger than 1.0e-8.
...


 symlatt: the Bravais lattice is oP (primitive orthorhombic)

 symlatt: the Bravais lattice is oP (primitive orthorhombic)

--- !COMMENT
src_file: m_symfind.F90
src_line: 995
message: |
    The Bravais lattice determined only from the primitive
    vectors, bravais(1)=  3, is more symmetric
    than the real one, iholohedry=  2, obtained by taking into
    account the atomic positions. Start deforming the primitive vector set.
...


 symlatt: the Bravais lattice is mP (primitive monoclinic)
 symspgr: spgroup=   6  Pm   (=Cs^1)
 LMac pawujat is:            0

--- !WARNING
src_file: m_mpinfo.F90
src_line: 2337
message: |
    nproc_spkpt= 24 >= nkpt= 18* nsppol= 1
    The number of processors is larger than nkpt*nsppol. This is a WASTE.
     Ignore this warning if this is not a GS run
...


--- !WARNING
src_file: m_mpi_setup.F90
src_line: 754
message: |
    Your number of spins*k-points (=18) will not distribute correctly
    with the current number of processors (=24).
    You will leave some empty.
    YOU ARE STRONGLY ADVISED TO ACTIVATE AUTOMATIC PARALLELIZATION!
    USE "AUTOPARAL=1" IN THE INPUT FILE.
...

 For input ecut=  3.967500E+01 best grid ngfft=      54      64     480
       max ecut=  4.092089E+01

 ==== FFT mesh ====
  FFT mesh divisions ........................    54   64  480
  Augmented FFT divisions ...................    55   65  480
  FFT algorithm .............................   512
  FFT cache size ............................    16
 getmpw: optimal value of mpw= 100940

 Symmetries : space group Pm (#  6); Bravais mP (primitive monocl.)

 getdim_nloc: deduce lmnmax  =  18, lnmax  =   6,
                      lmnmaxso=  18, lnmaxso=   6.
 For input ecut=  1.278660E+01 best grid ngfft=      32      36     270
       max ecut=  1.298880E+01

 ==== FFT mesh ====
  FFT mesh divisions ........................    32   36  270
  Augmented FFT divisions ...................    33   37  270
  FFT algorithm .............................   101
  FFT cache size ............................    16
 getmpw: optimal value of mpw= 2013
memory: analysis of memory needs
================================================================================
 Values of the parameters that define the memory need of the present run
     intxc =       0    ionmov =       2      iscf =      17    lmnmax =       6
     lnmax =       6     mgfft =     480  mpssoang =       3    mqgrid =    6390
     natom =      29  nloc_mem =       1    nspden =       1   nspinor =       1
    nsppol =       1      nsym =       2    n1xccc =    2501    ntypat =       2
    occopt =       7   xclevel =       2
-    mband =          82        mffmem =           1         mkmem =           1
       mpw =      100940          nfft =     1658880          nkpt =          18
 For the susceptibility and dielectric matrices, or tddft :
   mgfft =       270  nbnd_in_blk=    11    nfft =    311040     npw =      2013
================================================================================
P This job should need less than                     851.568 Mbytes of memory.
  Rough estimation (10% accuracy) of disk space for files :
_ WF disk file :   2273.370 Mbytes ; DEN or POT disk file :     12.658 Mbytes.
================================================================================

 Biggest array : f_fftgr(disk), with    202.5020 MBytes.
 memana : allocated an array of    202.502 Mbytes, for testing purposes.
 memana: allocated     851.568Mbytes, for testing purposes. 
 The job will continue.
--------------------------------------------------------------------------------
------------- Echo of variables that govern the present computation ------------
--------------------------------------------------------------------------------
-
- outvars: echo of selected default values                                      
-   iomode0 =  3 , fftalg0 =512 , wfoptalg0 =  0
-
- outvars: echo of global parameters not present in the input file              
-  max_nthreads =    1
-
 -outvars: echo values of preprocessed input variables --------
 
 These variables are accessible in NetCDF format (runo_OUT.nc)

            acell      9.3761834869E+00  1.0826684213E+01  8.3211636133E+01 Bohr
              amu      2.69815390E+01  1.59994000E+01
          chkprim           0
           dielng      5.00000000E+00 Bohr
           diemac      1.00000000E+03
           diemix      5.00000000E-01
          dilatmx      1.15000000E+00
             ecut      3.00000000E+01 Hartree
           ecutsm      5.00000000E-01 Hartree
           enunit           2
-          fftalg         512
           iatfix        1    2    3    4    5    6    7    8    9   10
                        11   12   13   14   15   16   17   18   19   20
                        21   22   23   24   25   26   27   28
          iatfixx       29
          iatfixy       29
           ionmov           2
           iprcel          45
             iscf          17
              ixc          11
              kpt      8.33333333E-02  8.33333333E-02  2.50000000E-01
                       2.50000000E-01  8.33333333E-02  2.50000000E-01
                       4.16666667E-01  8.33333333E-02  2.50000000E-01
                      -4.16666667E-01  8.33333333E-02  2.50000000E-01
                      -2.50000000E-01  8.33333333E-02  2.50000000E-01
                      -8.33333333E-02  8.33333333E-02  2.50000000E-01
                       8.33333333E-02  2.50000000E-01  2.50000000E-01
                       2.50000000E-01  2.50000000E-01  2.50000000E-01
                       4.16666667E-01  2.50000000E-01  2.50000000E-01
                      -4.16666667E-01  2.50000000E-01  2.50000000E-01
                      -2.50000000E-01  2.50000000E-01  2.50000000E-01
                      -8.33333333E-02  2.50000000E-01  2.50000000E-01
                       8.33333333E-02  4.16666667E-01  2.50000000E-01
                       2.50000000E-01  4.16666667E-01  2.50000000E-01
                       4.16666667E-01  4.16666667E-01  2.50000000E-01
                      -4.16666667E-01  4.16666667E-01  2.50000000E-01
                      -2.50000000E-01  4.16666667E-01  2.50000000E-01
                      -8.33333333E-02  4.16666667E-01  2.50000000E-01
         kptrlatt        6    0    0      0    6    0      0    0    2
          kptrlen      5.62571009E+01
P           mkmem           1
           natfix          28
          natfixx           1
          natfixy           1
            natom          29
            nband          82
            ngfft          54      64     480
             nkpt          18
            nstep         300
             nsym           2
            ntime         300
           ntypat           2
              occ      2.000000  2.000000  2.000000  2.000000  2.000000  2.000000
                       2.000000  2.000000  2.000000  2.000000  2.000000  2.000000
                       2.000000  2.000000  2.000000  2.000000  2.000000  2.000000
                       2.000000  2.000000  2.000000  2.000000  2.000000  2.000000
                       2.000000  2.000000  2.000000  2.000000  2.000000  2.000000
                       2.000000  2.000000  2.000000  2.000000  2.000000  2.000000
                       2.000000  2.000000  2.000000  2.000000  2.000000  2.000000
                       2.000000  2.000000  2.000000  0.000000  0.000000  0.000000
                       0.000000  0.000000  0.000000  0.000000  0.000000  0.000000
                       0.000000  0.000000  0.000000  0.000000  0.000000  0.000000
                       0.000000  0.000000  0.000000  0.000000  0.000000  0.000000
                       0.000000  0.000000  0.000000  0.000000  0.000000  0.000000
                       0.000000  0.000000  0.000000  0.000000  0.000000  0.000000
                       0.000000  0.000000  0.000000  0.000000
                       2.000000  2.000000  2.000000  2.000000  2.000000  2.000000
                       2.000000  2.000000  2.000000  2.000000  2.000000  2.000000
                       2.000000  2.000000  2.000000  2.000000  2.000000  2.000000
                       2.000000  2.000000  2.000000  2.000000  2.000000  2.000000
                       2.000000  2.000000  2.000000  2.000000  2.000000  2.000000
                       2.000000  2.000000  2.000000  2.000000  2.000000  2.000000
                       2.000000  2.000000  2.000000  2.000000  2.000000  2.000000
                       2.000000  2.000000  2.000000  0.000000  0.000000  0.000000
                       0.000000  0.000000  0.000000  0.000000  0.000000  0.000000
                       0.000000  0.000000  0.000000  0.000000  0.000000  0.000000
                       0.000000  0.000000  0.000000  0.000000  0.000000  0.000000
                       0.000000  0.000000  0.000000  0.000000  0.000000  0.000000
                       0.000000  0.000000  0.000000  0.000000  0.000000  0.000000
                       0.000000  0.000000  0.000000  0.000000
                       2.000000  2.000000  2.000000  2.000000  2.000000  2.000000
                       2.000000  2.000000  2.000000  2.000000  2.000000  2.000000
                       2.000000  2.000000  2.000000  2.000000  2.000000  2.000000
                       2.000000  2.000000  2.000000  2.000000  2.000000  2.000000
                       2.000000  2.000000  2.000000  2.000000  2.000000  2.000000
                       2.000000  2.000000  2.000000  2.000000  2.000000  2.000000
                       2.000000  2.000000  2.000000  2.000000  2.000000  2.000000
                       2.000000  2.000000  2.000000  0.000000  0.000000  0.000000
                       0.000000  0.000000  0.000000  0.000000  0.000000  0.000000
                       0.000000  0.000000  0.000000  0.000000  0.000000  0.000000
                       0.000000  0.000000  0.000000  0.000000  0.000000  0.000000
                       0.000000  0.000000  0.000000  0.000000  0.000000  0.000000
                       0.000000  0.000000  0.000000  0.000000  0.000000  0.000000
                       0.000000  0.000000  0.000000  0.000000
                       2.000000  2.000000  2.000000  2.000000  2.000000  2.000000
                       2.000000  2.000000  2.000000  2.000000  2.000000  2.000000
                       2.000000  2.000000  2.000000  2.000000  2.000000  2.000000
                       2.000000  2.000000  2.000000  2.000000  2.000000  2.000000
                       2.000000  2.000000  2.000000  2.000000  2.000000  2.000000
                       2.000000  2.000000  2.000000  2.000000  2.000000  2.000000
                       2.000000  2.000000  2.000000  2.000000  2.000000  2.000000
                       2.000000  2.000000  2.000000  0.000000  0.000000  0.000000
                       0.000000  0.000000  0.000000  0.000000  0.000000  0.000000
                       0.000000  0.000000  0.000000  0.000000  0.000000  0.000000
                       0.000000  0.000000  0.000000  0.000000  0.000000  0.000000
                       0.000000  0.000000  0.000000  0.000000  0.000000  0.000000
                       0.000000  0.000000  0.000000  0.000000  0.000000  0.000000
                       0.000000  0.000000  0.000000  0.000000
                       2.000000  2.000000  2.000000  2.000000  2.000000  2.000000
                       2.000000  2.000000  2.000000  2.000000  2.000000  2.000000
                       2.000000  2.000000  2.000000  2.000000  2.000000  2.000000
                       2.000000  2.000000  2.000000  2.000000  2.000000  2.000000
                       2.000000  2.000000  2.000000  2.000000  2.000000  2.000000
                       2.000000  2.000000  2.000000  2.000000  2.000000  2.000000
                       2.000000  2.000000  2.000000  2.000000  2.000000  2.000000
                       2.000000  2.000000  2.000000  0.000000  0.000000  0.000000
                       0.000000  0.000000  0.000000  0.000000  0.000000  0.000000
                       0.000000  0.000000  0.000000  0.000000  0.000000  0.000000
                       0.000000  0.000000  0.000000  0.000000  0.000000  0.000000
                       0.000000  0.000000  0.000000  0.000000  0.000000  0.000000
                       0.000000  0.000000  0.000000  0.000000  0.000000  0.000000
                       0.000000  0.000000  0.000000  0.000000
                       2.000000  2.000000  2.000000  2.000000  2.000000  2.000000
                       2.000000  2.000000  2.000000  2.000000  2.000000  2.000000
                       2.000000  2.000000  2.000000  2.000000  2.000000  2.000000
                       2.000000  2.000000  2.000000  2.000000  2.000000  2.000000
                       2.000000  2.000000  2.000000  2.000000  2.000000  2.000000
                       2.000000  2.000000  2.000000  2.000000  2.000000  2.000000
                       2.000000  2.000000  2.000000  2.000000  2.000000  2.000000
                       2.000000  2.000000  2.000000  0.000000  0.000000  0.000000
                       0.000000  0.000000  0.000000  0.000000  0.000000  0.000000
                       0.000000  0.000000  0.000000  0.000000  0.000000  0.000000
                       0.000000  0.000000  0.000000  0.000000  0.000000  0.000000
                       0.000000  0.000000  0.000000  0.000000  0.000000  0.000000
                       0.000000  0.000000  0.000000  0.000000  0.000000  0.000000
                       0.000000  0.000000  0.000000  0.000000
                       2.000000  2.000000  2.000000  2.000000  2.000000  2.000000
                       2.000000  2.000000  2.000000  2.000000  2.000000  2.000000
                       2.000000  2.000000  2.000000  2.000000  2.000000  2.000000
                       2.000000  2.000000  2.000000  2.000000  2.000000  2.000000
                       2.000000  2.000000  2.000000  2.000000  2.000000  2.000000
                       2.000000  2.000000  2.000000  2.000000  2.000000  2.000000
                       2.000000  2.000000  2.000000  2.000000  2.000000  2.000000
                       2.000000  2.000000  2.000000  0.000000  0.000000  0.000000
                       0.000000  0.000000  0.000000  0.000000  0.000000  0.000000
                       0.000000  0.000000  0.000000  0.000000  0.000000  0.000000
                       0.000000  0.000000  0.000000  0.000000  0.000000  0.000000
                       0.000000  0.000000  0.000000  0.000000  0.000000  0.000000
                       0.000000  0.000000  0.000000  0.000000  0.000000  0.000000
                       0.000000  0.000000  0.000000  0.000000
                       2.000000  2.000000  2.000000  2.000000  2.000000  2.000000
                       2.000000  2.000000  2.000000  2.000000  2.000000  2.000000
                       2.000000  2.000000  2.000000  2.000000  2.000000  2.000000
                       2.000000  2.000000  2.000000  2.000000  2.000000  2.000000
                       2.000000  2.000000  2.000000  2.000000  2.000000  2.000000
                       2.000000  2.000000  2.000000  2.000000  2.000000  2.000000
                       2.000000  2.000000  2.000000  2.000000  2.000000  2.000000
                       2.000000  2.000000  2.000000  0.000000  0.000000  0.000000
                       0.000000  0.000000  0.000000  0.000000  0.000000  0.000000
                       0.000000  0.000000  0.000000  0.000000  0.000000  0.000000
                       0.000000  0.000000  0.000000  0.000000  0.000000  0.000000
                       0.000000  0.000000  0.000000  0.000000  0.000000  0.000000
                       0.000000  0.000000  0.000000  0.000000  0.000000  0.000000
                       0.000000  0.000000  0.000000  0.000000
                       2.000000  2.000000  2.000000  2.000000  2.000000  2.000000
                       2.000000  2.000000  2.000000  2.000000  2.000000  2.000000
                       2.000000  2.000000  2.000000  2.000000  2.000000  2.000000
                       2.000000  2.000000  2.000000  2.000000  2.000000  2.000000
                       2.000000  2.000000  2.000000  2.000000  2.000000  2.000000
                       2.000000  2.000000  2.000000  2.000000  2.000000  2.000000
                       2.000000  2.000000  2.000000  2.000000  2.000000  2.000000
                       2.000000  2.000000  2.000000  0.000000  0.000000  0.000000
                       0.000000  0.000000  0.000000  0.000000  0.000000  0.000000
                       0.000000  0.000000  0.000000  0.000000  0.000000  0.000000
                       0.000000  0.000000  0.000000  0.000000  0.000000  0.000000
                       0.000000  0.000000  0.000000  0.000000  0.000000  0.000000
                       0.000000  0.000000  0.000000  0.000000  0.000000  0.000000
                       0.000000  0.000000  0.000000  0.000000
                       2.000000  2.000000  2.000000  2.000000  2.000000  2.000000
                       2.000000  2.000000  2.000000  2.000000  2.000000  2.000000
                       2.000000  2.000000  2.000000  2.000000  2.000000  2.000000
                       2.000000  2.000000  2.000000  2.000000  2.000000  2.000000
                       2.000000  2.000000  2.000000  2.000000  2.000000  2.000000
                       2.000000  2.000000  2.000000  2.000000  2.000000  2.000000
                       2.000000  2.000000  2.000000  2.000000  2.000000  2.000000
                       2.000000  2.000000  2.000000  0.000000  0.000000  0.000000
                       0.000000  0.000000  0.000000  0.000000  0.000000  0.000000
                       0.000000  0.000000  0.000000  0.000000  0.000000  0.000000
                       0.000000  0.000000  0.000000  0.000000  0.000000  0.000000
                       0.000000  0.000000  0.000000  0.000000  0.000000  0.000000
                       0.000000  0.000000  0.000000  0.000000  0.000000  0.000000
                       0.000000  0.000000  0.000000  0.000000
                       2.000000  2.000000  2.000000  2.000000  2.000000  2.000000
                       2.000000  2.000000  2.000000  2.000000  2.000000  2.000000
                       2.000000  2.000000  2.000000  2.000000  2.000000  2.000000
                       2.000000  2.000000  2.000000  2.000000  2.000000  2.000000
                       2.000000  2.000000  2.000000  2.000000  2.000000  2.000000
                       2.000000  2.000000  2.000000  2.000000  2.000000  2.000000
                       2.000000  2.000000  2.000000  2.000000  2.000000  2.000000
                       2.000000  2.000000  2.000000  0.000000  0.000000  0.000000
                       0.000000  0.000000  0.000000  0.000000  0.000000  0.000000
                       0.000000  0.000000  0.000000  0.000000  0.000000  0.000000
                       0.000000  0.000000  0.000000  0.000000  0.000000  0.000000
                       0.000000  0.000000  0.000000  0.000000  0.000000  0.000000
                       0.000000  0.000000  0.000000  0.000000  0.000000  0.000000
                       0.000000  0.000000  0.000000  0.000000
                       2.000000  2.000000  2.000000  2.000000  2.000000  2.000000
                       2.000000  2.000000  2.000000  2.000000  2.000000  2.000000
                       2.000000  2.000000  2.000000  2.000000  2.000000  2.000000
                       2.000000  2.000000  2.000000  2.000000  2.000000  2.000000
                       2.000000  2.000000  2.000000  2.000000  2.000000  2.000000
                       2.000000  2.000000  2.000000  2.000000  2.000000  2.000000
                       2.000000  2.000000  2.000000  2.000000  2.000000  2.000000
                       2.000000  2.000000  2.000000  0.000000  0.000000  0.000000
                       0.000000  0.000000  0.000000  0.000000  0.000000  0.000000
                       0.000000  0.000000  0.000000  0.000000  0.000000  0.000000
                       0.000000  0.000000  0.000000  0.000000  0.000000  0.000000
                       0.000000  0.000000  0.000000  0.000000  0.000000  0.000000
                       0.000000  0.000000  0.000000  0.000000  0.000000  0.000000
                       0.000000  0.000000  0.000000  0.000000
                       2.000000  2.000000  2.000000  2.000000  2.000000  2.000000
                       2.000000  2.000000  2.000000  2.000000  2.000000  2.000000
                       2.000000  2.000000  2.000000  2.000000  2.000000  2.000000
                       2.000000  2.000000  2.000000  2.000000  2.000000  2.000000
                       2.000000  2.000000  2.000000  2.000000  2.000000  2.000000
                       2.000000  2.000000  2.000000  2.000000  2.000000  2.000000
                       2.000000  2.000000  2.000000  2.000000  2.000000  2.000000
                       2.000000  2.000000  2.000000  0.000000  0.000000  0.000000
                       0.000000  0.000000  0.000000  0.000000  0.000000  0.000000
                       0.000000  0.000000  0.000000  0.000000  0.000000  0.000000
                       0.000000  0.000000  0.000000  0.000000  0.000000  0.000000
                       0.000000  0.000000  0.000000  0.000000  0.000000  0.000000
                       0.000000  0.000000  0.000000  0.000000  0.000000  0.000000
                       0.000000  0.000000  0.000000  0.000000
                       2.000000  2.000000  2.000000  2.000000  2.000000  2.000000
                       2.000000  2.000000  2.000000  2.000000  2.000000  2.000000
                       2.000000  2.000000  2.000000  2.000000  2.000000  2.000000
                       2.000000  2.000000  2.000000  2.000000  2.000000  2.000000
                       2.000000  2.000000  2.000000  2.000000  2.000000  2.000000
                       2.000000  2.000000  2.000000  2.000000  2.000000  2.000000
                       2.000000  2.000000  2.000000  2.000000  2.000000  2.000000
                       2.000000  2.000000  2.000000  0.000000  0.000000  0.000000
                       0.000000  0.000000  0.000000  0.000000  0.000000  0.000000
                       0.000000  0.000000  0.000000  0.000000  0.000000  0.000000
                       0.000000  0.000000  0.000000  0.000000  0.000000  0.000000
                       0.000000  0.000000  0.000000  0.000000  0.000000  0.000000
                       0.000000  0.000000  0.000000  0.000000  0.000000  0.000000
                       0.000000  0.000000  0.000000  0.000000
                       2.000000  2.000000  2.000000  2.000000  2.000000  2.000000
                       2.000000  2.000000  2.000000  2.000000  2.000000  2.000000
                       2.000000  2.000000  2.000000  2.000000  2.000000  2.000000
                       2.000000  2.000000  2.000000  2.000000  2.000000  2.000000
                       2.000000  2.000000  2.000000  2.000000  2.000000  2.000000
                       2.000000  2.000000  2.000000  2.000000  2.000000  2.000000
                       2.000000  2.000000  2.000000  2.000000  2.000000  2.000000
                       2.000000  2.000000  2.000000  0.000000  0.000000  0.000000
                       0.000000  0.000000  0.000000  0.000000  0.000000  0.000000
                       0.000000  0.000000  0.000000  0.000000  0.000000  0.000000
                       0.000000  0.000000  0.000000  0.000000  0.000000  0.000000
                       0.000000  0.000000  0.000000  0.000000  0.000000  0.000000
                       0.000000  0.000000  0.000000  0.000000  0.000000  0.000000
                       0.000000  0.000000  0.000000  0.000000
                       2.000000  2.000000  2.000000  2.000000  2.000000  2.000000
                       2.000000  2.000000  2.000000  2.000000  2.000000  2.000000
                       2.000000  2.000000  2.000000  2.000000  2.000000  2.000000
                       2.000000  2.000000  2.000000  2.000000  2.000000  2.000000
                       2.000000  2.000000  2.000000  2.000000  2.000000  2.000000
                       2.000000  2.000000  2.000000  2.000000  2.000000  2.000000
                       2.000000  2.000000  2.000000  2.000000  2.000000  2.000000
                       2.000000  2.000000  2.000000  0.000000  0.000000  0.000000
                       0.000000  0.000000  0.000000  0.000000  0.000000  0.000000
                       0.000000  0.000000  0.000000  0.000000  0.000000  0.000000
                       0.000000  0.000000  0.000000  0.000000  0.000000  0.000000
                       0.000000  0.000000  0.000000  0.000000  0.000000  0.000000
                       0.000000  0.000000  0.000000  0.000000  0.000000  0.000000
                       0.000000  0.000000  0.000000  0.000000
                       2.000000  2.000000  2.000000  2.000000  2.000000  2.000000
                       2.000000  2.000000  2.000000  2.000000  2.000000  2.000000
                       2.000000  2.000000  2.000000  2.000000  2.000000  2.000000
                       2.000000  2.000000  2.000000  2.000000  2.000000  2.000000
                       2.000000  2.000000  2.000000  2.000000  2.000000  2.000000
                       2.000000  2.000000  2.000000  2.000000  2.000000  2.000000
                       2.000000  2.000000  2.000000  2.000000  2.000000  2.000000
                       2.000000  2.000000  2.000000  0.000000  0.000000  0.000000
                       0.000000  0.000000  0.000000  0.000000  0.000000  0.000000
                       0.000000  0.000000  0.000000  0.000000  0.000000  0.000000
                       0.000000  0.000000  0.000000  0.000000  0.000000  0.000000
                       0.000000  0.000000  0.000000  0.000000  0.000000  0.000000
                       0.000000  0.000000  0.000000  0.000000  0.000000  0.000000
                       0.000000  0.000000  0.000000  0.000000
                       2.000000  2.000000  2.000000  2.000000  2.000000  2.000000
                       2.000000  2.000000  2.000000  2.000000  2.000000  2.000000
                       2.000000  2.000000  2.000000  2.000000  2.000000  2.000000
                       2.000000  2.000000  2.000000  2.000000  2.000000  2.000000
                       2.000000  2.000000  2.000000  2.000000  2.000000  2.000000
                       2.000000  2.000000  2.000000  2.000000  2.000000  2.000000
                       2.000000  2.000000  2.000000  2.000000  2.000000  2.000000
                       2.000000  2.000000  2.000000  0.000000  0.000000  0.000000
                       0.000000  0.000000  0.000000  0.000000  0.000000  0.000000
                       0.000000  0.000000  0.000000  0.000000  0.000000  0.000000
                       0.000000  0.000000  0.000000  0.000000  0.000000  0.000000
                       0.000000  0.000000  0.000000  0.000000  0.000000  0.000000
                       0.000000  0.000000  0.000000  0.000000  0.000000  0.000000
                       0.000000  0.000000  0.000000  0.000000
           occopt           7
           prtden           0
            prtwf           0
           shiftk      5.00000000E-01  5.00000000E-01  5.00000000E-01
          spgroup           6
           symrel      1  0  0   0  1  0   0  0  1       1  0  0   0 -1  0   0  0  1
            tnons      0.0000000  0.0000000  0.0000000     0.0000000 -0.0000000  0.0000000
           toldfe      1.00000000E-07 Hartree
          tolmxde      1.00000000E-04 Hartree
           tolmxf      0.00000000E+00
           tsmear      3.00000000E-02 Hartree
            typat      1  1  1  1  1  1  1  1  1  1  1  1  1  1  1  1  1  1  1  1
                       1  1  1  1  1  1  1  1  2
              wtk        0.05556    0.05556    0.05556    0.05556    0.05556    0.05556
                         0.05556    0.05556    0.05556    0.05556    0.05556    0.05556
                         0.05556    0.05556    0.05556    0.05556    0.05556    0.05556
           xangst     -9.4699965718E-08 -6.0326735376E-11  1.4059608299E+01
                      -9.4699965718E-08  2.8646172650E+00  1.4059608299E+01
                       2.4808312077E+00  1.4323086325E+00  1.4059608299E+01
                       2.4808312077E+00  4.2969258975E+00  1.4059608299E+01
                       8.2694360961E-01  1.4323086325E+00  1.1698811465E+01
                       8.2694360961E-01  4.2969258975E+00  1.1698811465E+01
                       3.3077749120E+00  2.8646172650E+00  1.1698811465E+01
                       3.3077749120E+00 -6.0326735376E-11  1.1698811465E+01
                       1.6538873139E+00 -6.0326735376E-11  9.3638499357E+00
                       1.6538873139E+00  2.8646172650E+00  9.3638499357E+00
                       4.1347186163E+00  1.4323086325E+00  9.3638499357E+00
                       4.1347186163E+00  4.2969258975E+00  9.3638499357E+00
                      -9.4699965718E-08 -6.0326735376E-11  7.0202400025E+00
                      -9.4699965718E-08  2.8646172650E+00  7.0202400025E+00
                       2.4808312077E+00  1.4323086325E+00  7.0202400025E+00
                       2.4808312077E+00  4.2969258975E+00  7.0202400025E+00
                       8.2694360961E-01  1.4323086325E+00  4.6779000867E+00
                       8.2694360961E-01  4.2969258975E+00  4.6779000867E+00
                       3.3077749120E+00 -6.0326735376E-11  4.6779000867E+00
                       3.3077749120E+00  2.8646172650E+00  4.6779000867E+00
                       1.6538873139E+00 -6.0326735376E-11  2.3389500433E+00
                       1.6538873139E+00  2.8646172650E+00  2.3389500433E+00
                       4.1347186163E+00  1.4323086325E+00  2.3389500433E+00
                       4.1347186163E+00  4.2969258975E+00  2.3389500433E+00
                      -9.4699965718E-08 -6.0326735376E-11  1.0000000001E-03
                      -9.4699965718E-08  2.8646172650E+00  1.0000000001E-03
                       2.4808312077E+00  1.4323086325E+00  1.0000000001E-03
                       2.4808312077E+00  4.2969258975E+00  1.0000000001E-03
                      -9.4699965718E-08  2.8646172650E+00  1.5750711890E+01
            xcart     -1.7895700000E-07 -1.1400100835E-10  2.6568809221E+01
                      -1.7895700000E-07  5.4133421064E+00  2.6568809221E+01
                       4.6880915645E+00  2.7066710532E+00  2.6568809221E+01
                       4.6880915645E+00  8.1200131596E+00  2.6568809221E+01
                       1.5626969495E+00  2.7066710532E+00  2.2107549749E+01
                       1.5626969495E+00  8.1200131596E+00  2.2107549749E+01
                       6.2507886929E+00  5.4133421064E+00  2.2107549749E+01
                       6.2507886929E+00 -1.1400100835E-10  2.2107549749E+01
                       3.1253940779E+00 -1.1400100835E-10  1.7695111928E+01
                       3.1253940779E+00  5.4133421064E+00  1.7695111928E+01
                       7.8134858214E+00  2.7066710532E+00  1.7695111928E+01
                       7.8134858214E+00  8.1200131596E+00  1.7695111928E+01
                      -1.7895700000E-07 -1.1400100835E-10  1.3266330992E+01
                      -1.7895700000E-07  5.4133421064E+00  1.3266330992E+01
                       4.6880915645E+00  2.7066710532E+00  1.3266330992E+01
                       4.6880915645E+00  8.1200131596E+00  1.3266330992E+01
                       1.5626969495E+00  2.7066710532E+00  8.8399500409E+00
                       1.5626969495E+00  8.1200131596E+00  8.8399500409E+00
                       6.2507886929E+00 -1.1400100835E-10  8.8399500409E+00
                       6.2507886929E+00  5.4133421064E+00  8.8399500409E+00
                       3.1253940779E+00 -1.1400100835E-10  4.4199750203E+00
                       3.1253940779E+00  5.4133421064E+00  4.4199750203E+00
                       7.8134858214E+00  2.7066710532E+00  4.4199750203E+00
                       7.8134858214E+00  8.1200131596E+00  4.4199750203E+00
                      -1.7895700000E-07 -1.1400100835E-10  1.8897261330E-03
                      -1.7895700000E-07  5.4133421064E+00  1.8897261330E-03
                       4.6880915645E+00  2.7066710532E+00  1.8897261330E-03
                       4.6880915645E+00  8.1200131596E+00  1.8897261330E-03
                      -1.7895700000E-07  5.4133421064E+00  2.9764531870E+01
             xred     -1.9086337234E-08 -1.0529632721E-11  3.1929199395E-01
                      -1.9086337234E-08  4.9999999999E-01  3.1929199395E-01
                       4.9999998091E-01  2.4999999999E-01  3.1929199395E-01
                       4.9999998091E-01  7.4999999998E-01  3.1929199395E-01
                       1.6666663485E-01  2.4999999999E-01  2.6567858507E-01
                       1.6666663485E-01  7.4999999998E-01  2.6567858507E-01
                       6.6666663485E-01  4.9999999999E-01  2.6567858507E-01
                       6.6666663485E-01 -1.0529632721E-11  2.6567858507E-01
                       3.3333328878E-01 -1.0529632721E-11  2.1265189281E-01
                       3.3333328878E-01  4.9999999999E-01  2.1265189281E-01
                       8.3333328878E-01  2.4999999999E-01  2.1265189281E-01
                       8.3333328878E-01  7.4999999998E-01  2.1265189281E-01
                      -1.9086337234E-08 -1.0529632721E-11  1.5942879636E-01
                      -1.9086337234E-08  4.9999999999E-01  1.5942879636E-01
                       4.9999998091E-01  2.4999999999E-01  1.5942879636E-01
                       4.9999998091E-01  7.4999999998E-01  1.5942879636E-01
                       1.6666663485E-01  2.4999999999E-01  1.0623454185E-01
                       1.6666663485E-01  7.4999999998E-01  1.0623454185E-01
                       6.6666663485E-01 -1.0529632721E-11  1.0623454185E-01
                       6.6666663485E-01  4.9999999999E-01  1.0623454185E-01
                       3.3333328878E-01 -1.0529632721E-11  5.3117270922E-02
                       3.3333328878E-01  4.9999999999E-01  5.3117270922E-02
                       8.3333328878E-01  2.4999999999E-01  5.3117270922E-02
                       8.3333328878E-01  7.4999999998E-01  5.3117270922E-02
                      -1.9086337234E-08 -1.0529632721E-11  2.2709878339E-05
                      -1.9086337234E-08  4.9999999999E-01  2.2709878339E-05
                       4.9999998091E-01  2.4999999999E-01  2.2709878339E-05
                       4.9999998091E-01  7.4999999998E-01  2.2709878339E-05
                      -1.9086337234E-08  4.9999999999E-01  3.5769675076E-01
            znucl       13.00000    8.00000

================================================================================

 chkinp: Checking input parameters for consistency.
 DATA TYPE INFORMATION: 
 REAL:      Data type name: REAL(DP) 
            Kind value:      8
            Precision:      15
            Smallest nonnegligible quantity relative to 1: 0.22204460E-015
            Smallest positive number:                      0.22250739E-307
            Largest representable number:                  0.17976931E+309
 INTEGER:   Data type name: INTEGER(default) 
            Kind value: 4
            Bit size:   32
            Largest representable number: 2147483647
 LOGICAL:   Data type name: LOGICAL 
            Kind value: 4
 CHARACTER: Data type name: CHARACTER             Kind value: 1

  ==== OpenMP parallelism is ON ====
- Max_threads:       1
- Num_threads:       1
- Num_procs:         12
- Dynamic:           F
 
  ==== Using MPI-2 specifications ==== 
  MPI-IO support is ON
  xmpi_tag_ub ................   2147483647
  xmpi_bsize_ch ..............            1
  xmpi_bsize_int .............            4
  xmpi_bsize_sp ..............            4
  xmpi_bsize_dp ..............            8
  xmpi_bsize_spc .............            8
  xmpi_bsize_dpc .............           16
  xmpio_bsize_frm ............            4
  xmpi_address_kind ..........            8
  xmpi_offset_kind ...........            8
  MPI_WTICK ..................    1.0000000000000001E-009

================================================================================
== DATASET  1 ==================================================================
-   mpi_nproc: 24, omp_nthreads: 1 (-1 if OMP is not activated)
-    --> not optimal distribution: autoparal keyword recommended in input file <--


--- !COMMENT
src_file: m_xgScalapack.F90
src_line: 235
message: |
    xgScalapack in auto mode
...


 getdim_nloc: deduce lmnmax  =  18, lnmax  =   6,
                      lmnmaxso=  18, lnmaxso=   6.
 Exchange-correlation functional for the present dataset will be:
  GGA: Perdew-Burke-Ernzerhof functional - ixc=11
 Citation for XC functional:
  J.P.Perdew, K.Burke, M.Ernzerhof, PRL 77, 3865 (1996)

 Unit cell volume ucvol=  8.4470610E+03 bohr^3
 Angles (23,13,12)=  9.00000000E+01  9.00000000E+01  9.00000000E+01 degrees

 getcut: wavevector=  0.0000  0.0000  0.0000  ngfft=  54  64 480
         ecut(hartree)=     39.675   => boxcut(ratio)=   2.03116
- pspini: atom type   1  psp file is /beegfs-home/users/w.zhengqing/dft/nc_paw/psp-nc/Al.psp8
- pspatm: opening atomic psp file    /beegfs-home/users/w.zhengqing/dft/nc_paw/psp-nc/Al.psp8
- Al    ONCVPSP-3.2.3.1  r_core=   1.76802   1.76802   1.70587
- 13.00000   3.00000    170504                znucl, zion, pspdat
    8   11    2    4       600   0.00000      pspcod,pspxc,lmax,lloc,mmax,r2well
    5.99000000000000    5.00000000000000    0.00000000000000   rchrg,fchrg,qchrg
     nproj     2     2     2
     extension_switch     1
  valence charge (before rescaling) integrates to:    2.9177606089823751     
  pspatm : epsatm=    4.08140610
         --- l  ekb(1:nproj) -->
             0    5.126667    0.728291
             1    7.287548    0.832437
             2   -2.770497   -0.637722
 pspatm: atomic psp has been read  and splines computed

- pspini: atom type   2  psp file is /beegfs-home/users/w.zhengqing/dft/nc_paw/psp-nc/O.psp8
- pspatm: opening atomic psp file    /beegfs-home/users/w.zhengqing/dft/nc_paw/psp-nc/O.psp8
- O     ONCVPSP-3.2.3.1  r_core=   1.35509   1.45563   1.26150
-  8.00000   6.00000    170504                znucl, zion, pspdat
    8   11    2    4       600   0.00000      pspcod,pspxc,lmax,lloc,mmax,r2well
    5.99000000000000    4.00000000000000    0.00000000000000   rchrg,fchrg,qchrg
     nproj     2     2     1
     extension_switch     1
  valence charge (before rescaling) integrates to:    5.9990318752405338     
  pspatm : epsatm=    6.19546011
         --- l  ekb(1:nproj) -->
             0    6.056735    0.824024
             1   -4.717130   -1.149271
             2   -1.331955
 pspatm: atomic psp has been read  and splines computed

   1.08427348E+04                                ecore*ucvol(ha*bohr**3)
 ==== Info on pseudopotentials ====
  Norm-conserving pseudopotentials
  Number of pseudopotentials ..    2
  Number of types of atoms   ..    2
  Scalar calculation (no spin-orbit term)
  Nonlocal part applied using Legendre polynomials
  Max number of non-local projectors over l and type   2
  Highest angular momentum +1 .......   3
  Max number of (l,n)   components ..   6
  Max number of (l,m,n) components ..   6

 Pseudo-Core Charge Info: 
   Number of radial points for pseudo-core charge .. 2501
   XC core-correction treatment (optnlxccc) ........    1
   Radius for pseudo-core charge for each type ..... 

  - Atom type    1 has pseudo-core radius ..  5.9900
  - Atom type    2 has pseudo-core radius ..  5.9900

 Info on the Q-grid used for form factors in spline form: 
   Number of q-points for radial functions ffspl ..  23595
   Number of q-points for vlspl ...................  23595
   vloc is computed in Reciprocal Space
   model core charge treated in real-space

  XC functional for type 1 is 11
  Pseudo valence available: yes
  XC functional for type 2 is 11
  Pseudo valence available: yes

 wfconv:    82 bands initialized randomly with npw=100940, for ikpt=     1
_setup2: Arith. and geom. avg. npw (full set) are  100830.556  100830.546
 initro: for itypat=  1, take pseudo charge density from pp file
 initro: for itypat=  2, take pseudo charge density from pp file

================================================================================

=== [ionmov= 2] Broyden-Fletcher-Goldfard-Shanno method (forces)            
================================================================================

--- Iteration: (  1/300) Internal Cycle: (1/1)
--------------------------------------------------------------------------------

 Cartesian coordinates (xcart) [bohr]
 -1.78957000000000E-07 -1.14001008352399E-10  2.65688092207560E+01
 -1.78957000000000E-07  5.41334210638600E+00  2.65688092207560E+01
  4.68809156446900E+00  2.70667105319300E+00  2.65688092207560E+01
  4.68809156446900E+00  8.12001315957900E+00  2.65688092207560E+01
  1.56269694950300E+00  2.70667105319300E+00  2.21075497491130E+01
  1.56269694950300E+00  8.12001315957900E+00  2.21075497491130E+01
  6.25078869291000E+00  5.41334210638600E+00  2.21075497491130E+01
  6.25078869291000E+00 -1.14001008352399E-10  2.21075497491130E+01
  3.12539407792500E+00 -1.14001008352399E-10  1.76951119279120E+01
  3.12539407792500E+00  5.41334210638600E+00  1.76951119279120E+01
  7.81348582135100E+00  2.70667105319300E+00  1.76951119279120E+01
  7.81348582135100E+00  8.12001315957900E+00  1.76951119279120E+01
 -1.78957000000000E-07 -1.14001008352399E-10  1.32663309918530E+01
 -1.78957000000000E-07  5.41334210638600E+00  1.32663309918530E+01
  4.68809156446900E+00  2.70667105319300E+00  1.32663309918530E+01
  4.68809156446900E+00  8.12001315957900E+00  1.32663309918530E+01
  1.56269694950300E+00  2.70667105319300E+00  8.83995004086500E+00
  1.56269694950300E+00  8.12001315957900E+00  8.83995004086500E+00
  6.25078869291000E+00 -1.14001008352399E-10  8.83995004086500E+00
  6.25078869291000E+00  5.41334210638600E+00  8.83995004086500E+00
  3.12539407792500E+00 -1.14001008352399E-10  4.41997502033800E+00
  3.12539407792500E+00  5.41334210638600E+00  4.41997502033800E+00
  7.81348582135100E+00  2.70667105319300E+00  4.41997502033800E+00
  7.81348582135100E+00  8.12001315957900E+00  4.41997502033800E+00
 -1.78957000000000E-07 -1.14001008352399E-10  1.88972613300000E-03
 -1.78957000000000E-07  5.41334210638600E+00  1.88972613300000E-03
  4.68809156446900E+00  2.70667105319300E+00  1.88972613300000E-03
  4.68809156446900E+00  8.12001315957900E+00  1.88972613300000E-03
 -1.78957000000000E-07  5.41334210638600E+00  2.97645318700860E+01
 Reduced coordinates (xred)
 -1.90863372341242E-08 -1.05296327213011E-11  3.19291993950103E-01
 -1.90863372341242E-08  4.99999999989470E-01  3.19291993950103E-01
  4.99999980911103E-01  2.49999999994735E-01  3.19291993950103E-01
  4.99999980911103E-01  7.49999999984206E-01  3.19291993950103E-01
  1.66666634850559E-01  2.49999999994735E-01  2.65678585069253E-01
  1.66666634850559E-01  7.49999999984206E-01  2.65678585069253E-01
  6.66666634845972E-01  4.99999999989470E-01  2.65678585069253E-01
  6.66666634845972E-01 -1.05296327213011E-11  2.65678585069253E-01
  3.33333288783402E-01 -1.05296327213011E-11  2.12651892814958E-01
  3.33333288783402E-01  4.99999999989470E-01  2.12651892814958E-01
  8.33333288780842E-01  2.49999999994735E-01  2.12651892814958E-01
  8.33333288780842E-01  7.49999999984206E-01  2.12651892814958E-01
 -1.90863372341242E-08 -1.05296327213011E-11  1.59428796360271E-01
 -1.90863372341242E-08  4.99999999989470E-01  1.59428796360271E-01
  4.99999980911103E-01  2.49999999994735E-01  1.59428796360271E-01
  4.99999980911103E-01  7.49999999984206E-01  1.59428796360271E-01
  1.66666634850559E-01  2.49999999994735E-01  1.06234541846237E-01
  1.66666634850559E-01  7.49999999984206E-01  1.06234541846237E-01
  6.66666634845972E-01 -1.05296327213011E-11  1.06234541846237E-01
  6.66666634845972E-01  4.99999999989470E-01  1.06234541846237E-01
  3.33333288783402E-01 -1.05296327213011E-11  5.31172709219826E-02
  3.33333288783402E-01  4.99999999989470E-01  5.31172709219826E-02
  8.33333288780842E-01  2.49999999994735E-01  5.31172709219826E-02
  8.33333288780842E-01  7.49999999984206E-01  5.31172709219826E-02
 -1.90863372341242E-08 -1.05296327213011E-11  2.27098783393657E-05
 -1.90863372341242E-08  4.99999999989470E-01  2.27098783393657E-05
  4.99999980911103E-01  2.49999999994735E-01  2.27098783393657E-05
  4.99999980911103E-01  7.49999999984206E-01  2.27098783393657E-05
 -1.90863372341242E-08  4.99999999989470E-01  3.57696750758660E-01

---SELF-CONSISTENT-FIELD CONVERGENCE--------------------------------------------
 For input ecut=  9.668510E+00 best grid ngfft=      30      32     240
       max ecut=  1.026276E+01

 ==== FFT mesh ====
  FFT mesh divisions ........................    30   32  240
  Augmented FFT divisions ...................    31   33  240
  FFT algorithm .............................   100
  FFT cache size ............................    16
 getmpw: optimal value of mpw= 1299

 getcut: wavevector=  0.0000  0.0000  0.0000  ngfft=  54  64 480
         ecut(hartree)=     30.000   => boxcut(ratio)=   2.33583

 getcut : COMMENT -
  Note that boxcut > 2.2 ; recall that boxcut=Gcut(box)/Gcut(sphere) = 2
  is sufficient for exact treatment of convolution.
  Such a large boxcut is a waste : you could raise ecut
  e.g. ecut=   40.920891 Hartrees makes boxcut=2


 1/G**2 cut-off applied in the following step : cutoff-mode = CRYSTAL

 1/G**2 cut-off applied in the following step : cutoff-mode = CRYSTAL

 1/G**2 cut-off applied in the following step : cutoff-mode = CRYSTAL

--- !WARNING
src_file: m_drivexc.F90
src_line: 783
message: |
    Density went too small (lower than xc_denpos) at 274376 points
    and was set to xc_denpos =   1.00E-14. Lowest was  -0.21E-06.
    This might be due to (1) too low boxcut or (2) too low ecut for
     pseudopotential core charge, or (3) too low ecut for estimated initial density.
     Possible workarounds : increase ecut, or define the input variable densty,
     with a value larger than the guess for the decay length, or initialize your,
     density with a preliminary LDA or GGA-PBE if you are using a more exotic xc functional.
...


 ITER STEP NUMBER     1
 Max number of non-self-consistent loops: 2
 newocc: new Fermi energy is      -0.055039 , with nelect=     90.000000, Number of bisection calls: 48
 newocc : inside present(stmbias) section, stmbias=     0.000000E+00
 mkrho: echo density (plane-wave part only)
 Total charge density [el/Bohr^3]
)     Maximum=    1.1193E+00  at reduced coord.    0.0370    0.5000    0.3625
)     Minimum=    2.1753E-05  at reduced coord.    0.8148    0.0000    0.7375
   Integrated=    9.0000E+01
 Total charge density [el/Bohr^3]
)     Maximum=    1.1193E+00  at reduced coord.    0.0370    0.5000    0.3625
)     Minimum=    2.1753E-05  at reduced coord.    0.8148    0.0000    0.7375
   Integrated=    9.0000E+01
 ETOT  1  -81.277948346589    -8.128E+01 2.947E-02 3.105E+01
 scprqt: <Vxc>= -1.5565030E-01 hartree

 dielmt : 15 largest eigenvalues of the hermitian RPA dielectric matrix
  1-5  : 8.71719E+01 3.19162E+01 1.34901E+01 7.98397E+00 5.17763E+00
  6-10 : 3.89890E+00 3.89613E+00 3.89346E+00 3.68739E+00 3.68720E+00
  11-15: 3.42899E+00 3.42786E+00 3.17297E+00 3.15675E+00 3.13660E+00

 dielmt : 5 smallest eigenvalues of the hermitian RPA dielectric matrix
  1-5  : 1.00000E+00 1.00017E+00 1.00017E+00 1.00018E+00 1.00018E+00

 Simple mixing update:
  residual square of the potential:    3.0157539943488194

 1/G**2 cut-off applied in the following step : cutoff-mode = CRYSTAL

--- !WARNING
src_file: m_drivexc.F90
src_line: 783
message: |
    Density went too small (lower than xc_denpos) at 415288 points
    and was set to xc_denpos =   1.00E-14. Lowest was  -0.23E-02.
    This might be due to (1) too low boxcut or (2) too low ecut for
     pseudopotential core charge, or (3) too low ecut for estimated initial density.
     Possible workarounds : increase ecut, or define the input variable densty,
     with a value larger than the guess for the decay length, or initialize your,
     density with a preliminary LDA or GGA-PBE if you are using a more exotic xc functional.
...

{SCF_istep: 1 , Vnl|psi>: 820 , wall_time: ' 04:46 [minutes] '} <<< TIME

 ITER STEP NUMBER     2
 Max number of non-self-consistent loops: 2
 newocc: new Fermi energy is      -0.066751 , with nelect=     90.000000, Number of bisection calls: 47
 newocc : inside present(stmbias) section, stmbias=     0.000000E+00
 mkrho: echo density (plane-wave part only)
 Total charge density [el/Bohr^3]
)     Maximum=    9.6515E-01  at reduced coord.    0.0000    0.5000    0.3646
)     Minimum=    0.0000E+00  at reduced coord.    0.8148    0.5000    0.5083
   Integrated=    9.0000E+01
 Total charge density [el/Bohr^3]
)     Maximum=    9.6515E-01  at reduced coord.    0.0000    0.5000    0.3646
)     Minimum=    0.0000E+00  at reduced coord.    0.8148    0.5000    0.5083
   Integrated=    9.0000E+01
 ETOT  2  -81.371666184410    -9.372E-02 2.544E-03 4.568E+00
 scprqt: <Vxc>= -1.7080579E-01 hartree

 Pulay update with  1 previous iterations:
 mixing of old trial potential: alpha(m:m-4)=  0.838      0.162

--- !WARNING
src_file: m_drivexc.F90
src_line: 783
message: |
    Density went too small (lower than xc_denpos) at 410922 points
    and was set to xc_denpos =   1.00E-14. Lowest was  -0.15E-02.
    This might be due to (1) too low boxcut or (2) too low ecut for
     pseudopotential core charge, or (3) too low ecut for estimated initial density.
     Possible workarounds : increase ecut, or define the input variable densty,
     with a value larger than the guess for the decay length, or initialize your,
     density with a preliminary LDA or GGA-PBE if you are using a more exotic xc functional.
...

{SCF_istep: 2 , Vnl|psi>: 820 , wall_time: ' 03:25 [minutes] '} <<< TIME

 ITER STEP NUMBER     3
 newocc: new Fermi energy is      -0.050391 , with nelect=     90.000000, Number of bisection calls: 48
 newocc : inside present(stmbias) section, stmbias=     0.000000E+00
 mkrho: echo density (plane-wave part only)
 Total charge density [el/Bohr^3]
)     Maximum=    9.6499E-01  at reduced coord.    0.0000    0.5000    0.3646
)     Minimum=    0.0000E+00  at reduced coord.    0.4259    0.0000    0.4604
   Integrated=    9.0000E+01
 Total charge density [el/Bohr^3]
)     Maximum=    9.6499E-01  at reduced coord.    0.0000    0.5000    0.3646
)     Minimum=    0.0000E+00  at reduced coord.    0.4259    0.0000    0.4604
   Integrated=    9.0000E+01
 ETOT  3  -81.359226134133     1.244E-02 1.051E-03 1.726E+00
 scprqt: <Vxc>= -1.6846251E-01 hartree

 Pulay update with  2 previous iterations:
 mixing of old trial potential: alpha(m:m-4)=   2.43      -1.38     -0.476E-01

--- !WARNING
src_file: m_drivexc.F90
src_line: 783
message: |
    Density went too small (lower than xc_denpos) at 399793 points
    and was set to xc_denpos =   1.00E-14. Lowest was  -0.35E-03.
    This might be due to (1) too low boxcut or (2) too low ecut for
     pseudopotential core charge, or (3) too low ecut for estimated initial density.
     Possible workarounds : increase ecut, or define the input variable densty,
     with a value larger than the guess for the decay length, or initialize your,
     density with a preliminary LDA or GGA-PBE if you are using a more exotic xc functional.
...

{SCF_istep: 3 , Vnl|psi>: 410 , wall_time: ' 01:44 [minutes] '} <<< TIME

 ITER STEP NUMBER     4
 newocc: new Fermi energy is      -0.024892 , with nelect=     90.000000, Number of bisection calls: 46
 newocc : inside present(stmbias) section, stmbias=     0.000000E+00
 mkrho: echo density (plane-wave part only)
 Total charge density [el/Bohr^3]
)     Maximum=    9.4891E-01  at reduced coord.    0.0000    0.5000    0.3646
)     Minimum=    0.0000E+00  at reduced coord.    0.2778    0.0000    0.4646
   Integrated=    9.0000E+01
 Total charge density [el/Bohr^3]
)     Maximum=    9.4891E-01  at reduced coord.    0.0000    0.5000    0.3646
)     Minimum=    0.0000E+00  at reduced coord.    0.2778    0.0000    0.4646
   Integrated=    9.0000E+01
 ETOT  4  -81.357911254304     1.315E-03 5.590E-03 1.090E-01
 scprqt: <Vxc>= -1.6234077E-01 hartree

 Pulay update with  3 previous iterations:
 mixing of old trial potential: alpha(m:m-4)=   1.28     -0.520      0.159      0.809E-01

--- !WARNING
src_file: m_drivexc.F90
src_line: 783
message: |
    Density went too small (lower than xc_denpos) at 350445 points
    and was set to xc_denpos =   1.00E-14. Lowest was  -0.56E-04.
    This might be due to (1) too low boxcut or (2) too low ecut for
     pseudopotential core charge, or (3) too low ecut for estimated initial density.
     Possible workarounds : increase ecut, or define the input variable densty,
     with a value larger than the guess for the decay length, or initialize your,
     density with a preliminary LDA or GGA-PBE if you are using a more exotic xc functional.
...

{SCF_istep: 4 , Vnl|psi>: 410 , wall_time: ' 01:43 [minutes] '} <<< TIME

 ITER STEP NUMBER     5
 newocc: new Fermi energy is      -0.023650 , with nelect=     90.000000, Number of bisection calls: 47
 newocc : inside present(stmbias) section, stmbias=     0.000000E+00
 mkrho: echo density (plane-wave part only)
 Total charge density [el/Bohr^3]
)     Maximum=    9.6941E-01  at reduced coord.    0.0185    0.5156    0.3625
)     Minimum=    0.0000E+00  at reduced coord.    0.3704    0.0000    0.4604
   Integrated=    9.0000E+01
 Total charge density [el/Bohr^3]
)     Maximum=    9.6941E-01  at reduced coord.    0.0185    0.5156    0.3625
)     Minimum=    0.0000E+00  at reduced coord.    0.3704    0.0000    0.4604
   Integrated=    9.0000E+01
 ETOT  5  -81.360124321874    -2.213E-03 5.065E-04 3.467E-01
 scprqt: <Vxc>= -1.5820100E-01 hartree

 dielmt : 15 largest eigenvalues of the hermitian RPA dielectric matrix
  1-5  : 9.51286E+01 3.59784E+01 1.54857E+01 9.67360E+00 6.93886E+00
  6-10 : 5.12583E+00 3.98859E+00 3.98373E+00 3.93650E+00 3.79985E+00
  11-15: 3.77824E+00 3.53643E+00 3.51342E+00 3.23250E+00 3.22226E+00

 dielmt : 5 smallest eigenvalues of the hermitian RPA dielectric matrix
  1-5  : 1.00000E+00 1.00000E+00 1.00000E+00 1.00000E+00 1.00000E+00

 Pulay update with  4 previous iterations:
 mixing of old trial potential: alpha(m:m-4)=  0.774      0.681      -1.18      0.715      0.563E-02

--- !WARNING
src_file: m_drivexc.F90
src_line: 783
message: |
    Density went too small (lower than xc_denpos) at 395925 points
    and was set to xc_denpos =   1.00E-14. Lowest was  -0.86E-04.
    This might be due to (1) too low boxcut or (2) too low ecut for
     pseudopotential core charge, or (3) too low ecut for estimated initial density.
     Possible workarounds : increase ecut, or define the input variable densty,
     with a value larger than the guess for the decay length, or initialize your,
     density with a preliminary LDA or GGA-PBE if you are using a more exotic xc functional.
...

{SCF_istep: 5 , Vnl|psi>: 410 , wall_time: ' 03:02 [minutes] '} <<< TIME

 ITER STEP NUMBER     6
 newocc: new Fermi energy is      -0.023595 , with nelect=     90.000000, Number of bisection calls: 47
 newocc : inside present(stmbias) section, stmbias=     0.000000E+00
 mkrho: echo density (plane-wave part only)
 Total charge density [el/Bohr^3]
)     Maximum=    9.6535E-01  at reduced coord.    0.0185    0.5156    0.3625
)     Minimum=    0.0000E+00  at reduced coord.    0.3704    0.0000    0.4604
   Integrated=    9.0000E+01
 Total charge density [el/Bohr^3]
)     Maximum=    9.6535E-01  at reduced coord.    0.0185    0.5156    0.3625
)     Minimum=    0.0000E+00  at reduced coord.    0.3704    0.0000    0.4604
   Integrated=    9.0000E+01
 ETOT  6  -81.359794118692     3.302E-04 9.903E-04 1.787E-01
 scprqt: <Vxc>= -1.5868489E-01 hartree

 Pulay update with  5 previous iterations:
 mixing of old trial potential: alpha(m:m-4)=   1.46     -0.682      0.256     -0.454E-01  0.422E-02

--- !WARNING
src_file: m_drivexc.F90
src_line: 783
message: |
    Density went too small (lower than xc_denpos) at 410163 points
    and was set to xc_denpos =   1.00E-14. Lowest was  -0.14E-03.
    This might be due to (1) too low boxcut or (2) too low ecut for
     pseudopotential core charge, or (3) too low ecut for estimated initial density.
     Possible workarounds : increase ecut, or define the input variable densty,
     with a value larger than the guess for the decay length, or initialize your,
     density with a preliminary LDA or GGA-PBE if you are using a more exotic xc functional.
...

{SCF_istep: 6 , Vnl|psi>: 410 , wall_time: ' 01:43 [minutes] '} <<< TIME

 ITER STEP NUMBER     7
 newocc: new Fermi energy is      -0.023337 , with nelect=     90.000000, Number of bisection calls: 48
 newocc : inside present(stmbias) section, stmbias=     0.000000E+00
 mkrho: echo density (plane-wave part only)
 Total charge density [el/Bohr^3]
)     Maximum=    9.5815E-01  at reduced coord.    0.0000    0.5000    0.3646
)     Minimum=    0.0000E+00  at reduced coord.    0.3704    0.0000    0.4604
   Integrated=    9.0000E+01
 Total charge density [el/Bohr^3]
)     Maximum=    9.5815E-01  at reduced coord.    0.0000    0.5000    0.3646
)     Minimum=    0.0000E+00  at reduced coord.    0.3704    0.0000    0.4604
   Integrated=    9.0000E+01
 ETOT  7  -81.359141057873     6.531E-04 1.131E-03 3.393E-02
 scprqt: <Vxc>= -1.5969712E-01 hartree

 Pulay update with  6 previous iterations:
 mixing of old trial potential: alpha(m:m-4)=   1.43      -1.07      0.735      0.577E-01 -0.393

--- !WARNING
src_file: m_drivexc.F90
src_line: 783
message: |
    Density went too small (lower than xc_denpos) at 406092 points
    and was set to xc_denpos =   1.00E-14. Lowest was  -0.11E-03.
    This might be due to (1) too low boxcut or (2) too low ecut for
     pseudopotential core charge, or (3) too low ecut for estimated initial density.
     Possible workarounds : increase ecut, or define the input variable densty,
     with a value larger than the guess for the decay length, or initialize your,
     density with a preliminary LDA or GGA-PBE if you are using a more exotic xc functional.
...

{SCF_istep: 7 , Vnl|psi>: 410 , wall_time: ' 01:44 [minutes] '} <<< TIME

 ITER STEP NUMBER     8
 newocc: new Fermi energy is      -0.023465 , with nelect=     90.000000, Number of bisection calls: 48
 newocc : inside present(stmbias) section, stmbias=     0.000000E+00
 mkrho: echo density (plane-wave part only)
 Total charge density [el/Bohr^3]
)     Maximum=    9.5675E-01  at reduced coord.    0.0000    0.5000    0.3646
)     Minimum=    0.0000E+00  at reduced coord.    0.3704    0.0000    0.4604
   Integrated=    9.0000E+01
 Total charge density [el/Bohr^3]
)     Maximum=    9.5675E-01  at reduced coord.    0.0000    0.5000    0.3646
)     Minimum=    0.0000E+00  at reduced coord.    0.3704    0.0000    0.4604
   Integrated=    9.0000E+01
 ETOT  8  -81.359252406219    -1.113E-04 4.710E-04 1.486E-02
 scprqt: <Vxc>= -1.5911295E-01 hartree

 Pulay update with  7 previous iterations:
 mixing of old trial potential: alpha(m:m-4)=   2.14      -1.61      0.679     -0.250      0.610E-01

--- !WARNING
src_file: m_drivexc.F90
src_line: 783
message: |
    Density went too small (lower than xc_denpos) at 398210 points
    and was set to xc_denpos =   1.00E-14. Lowest was  -0.67E-04.
    This might be due to (1) too low boxcut or (2) too low ecut for
     pseudopotential core charge, or (3) too low ecut for estimated initial density.
     Possible workarounds : increase ecut, or define the input variable densty,
     with a value larger than the guess for the decay length, or initialize your,
     density with a preliminary LDA or GGA-PBE if you are using a more exotic xc functional.
...

{SCF_istep: 8 , Vnl|psi>: 410 , wall_time: ' 01:43 [minutes] '} <<< TIME

 ITER STEP NUMBER     9
 newocc: new Fermi energy is      -0.023624 , with nelect=     90.000000, Number of bisection calls: 47
 newocc : inside present(stmbias) section, stmbias=     0.000000E+00
 mkrho: echo density (plane-wave part only)
 Total charge density [el/Bohr^3]
)     Maximum=    9.5547E-01  at reduced coord.    0.0000    0.5000    0.3646
)     Minimum=    0.0000E+00  at reduced coord.    0.3704    0.0000    0.4604
   Integrated=    9.0000E+01
 Total charge density [el/Bohr^3]
)     Maximum=    9.5547E-01  at reduced coord.    0.0000    0.5000    0.3646
)     Minimum=    0.0000E+00  at reduced coord.    0.3704    0.0000    0.4604
   Integrated=    9.0000E+01
 ETOT  9  -81.359445017639    -1.926E-04 2.317E-04 4.331E-03
 scprqt: <Vxc>= -1.5803988E-01 hartree

 Pulay update with  7 previous iterations:
 mixing of old trial potential: alpha(m:m-4)=   3.32      -3.40       1.34     -0.454      0.225

--- !WARNING
src_file: m_drivexc.F90
src_line: 783
message: |
    Density went too small (lower than xc_denpos) at 376343 points
    and was set to xc_denpos =   1.00E-14. Lowest was  -0.57E-05.
    This might be due to (1) too low boxcut or (2) too low ecut for
     pseudopotential core charge, or (3) too low ecut for estimated initial density.
     Possible workarounds : increase ecut, or define the input variable densty,
     with a value larger than the guess for the decay length, or initialize your,
     density with a preliminary LDA or GGA-PBE if you are using a more exotic xc functional.
...

{SCF_istep: 9 , Vnl|psi>: 410 , wall_time: ' 01:43 [minutes] '} <<< TIME

 ITER STEP NUMBER    10
 newocc: new Fermi energy is      -0.023806 , with nelect=     90.000000, Number of bisection calls: 47
 newocc : inside present(stmbias) section, stmbias=     0.000000E+00
 mkrho: echo density (plane-wave part only)
 Total charge density [el/Bohr^3]
)     Maximum=    9.5372E-01  at reduced coord.    0.0000    0.5000    0.3646
)     Minimum=    0.0000E+00  at reduced coord.    0.2963    0.0625    0.4583
   Integrated=    9.0000E+01
 Total charge density [el/Bohr^3]
)     Maximum=    9.5372E-01  at reduced coord.    0.0000    0.5000    0.3646
)     Minimum=    0.0000E+00  at reduced coord.    0.2963    0.0625    0.4583
   Integrated=    9.0000E+01
 ETOT 10  -81.359602409233    -1.574E-04 1.307E-04 2.880E-04
 scprqt: <Vxc>= -1.5506891E-01 hartree

 Pulay update with  7 previous iterations:
 mixing of old trial potential: alpha(m:m-4)=   1.50      -1.53       1.17     -0.144      0.293E-01

--- !WARNING
src_file: m_drivexc.F90
src_line: 783
message: |
    Density went too small (lower than xc_denpos) at 362714 points
    and was set to xc_denpos =   1.00E-14. Lowest was  -0.23E-05.
    This might be due to (1) too low boxcut or (2) too low ecut for
     pseudopotential core charge, or (3) too low ecut for estimated initial density.
     Possible workarounds : increase ecut, or define the input variable densty,
     with a value larger than the guess for the decay length, or initialize your,
     density with a preliminary LDA or GGA-PBE if you are using a more exotic xc functional.
...

{SCF_istep: 10 , Vnl|psi>: 410 , wall_time: ' 01:43 [minutes] '} <<< TIME

 ITER STEP NUMBER    11
 newocc: new Fermi energy is      -0.023737 , with nelect=     90.000000, Number of bisection calls: 47
 newocc : inside present(stmbias) section, stmbias=     0.000000E+00
 mkrho: echo density (plane-wave part only)
 Total charge density [el/Bohr^3]
)     Maximum=    9.5397E-01  at reduced coord.    0.0000    0.5000    0.3646
)     Minimum=    0.0000E+00  at reduced coord.    0.2963    0.0625    0.4583
   Integrated=    9.0000E+01
 Total charge density [el/Bohr^3]
)     Maximum=    9.5397E-01  at reduced coord.    0.0000    0.5000    0.3646
)     Minimum=    0.0000E+00  at reduced coord.    0.2963    0.0625    0.4583
   Integrated=    9.0000E+01
 ETOT 11  -81.359606935077    -4.526E-06 7.268E-05 1.309E-05
 scprqt: <Vxc>= -1.5436296E-01 hartree

 Pulay update with  7 previous iterations:
 mixing of old trial potential: alpha(m:m-4)=   1.31     -0.175     -0.683      0.921     -0.426

--- !WARNING
src_file: m_drivexc.F90
src_line: 783
message: |
    Density went too small (lower than xc_denpos) at 345631 points
    and was set to xc_denpos =   1.00E-14. Lowest was  -0.22E-05.
    This might be due to (1) too low boxcut or (2) too low ecut for
     pseudopotential core charge, or (3) too low ecut for estimated initial density.
     Possible workarounds : increase ecut, or define the input variable densty,
     with a value larger than the guess for the decay length, or initialize your,
     density with a preliminary LDA or GGA-PBE if you are using a more exotic xc functional.
...

{SCF_istep: 11 , Vnl|psi>: 410 , wall_time: ' 01:43 [minutes] '} <<< TIME

 ITER STEP NUMBER    12
 newocc: new Fermi energy is      -0.023721 , with nelect=     90.000000, Number of bisection calls: 47
 newocc : inside present(stmbias) section, stmbias=     0.000000E+00
 mkrho: echo density (plane-wave part only)
 Total charge density [el/Bohr^3]
)     Maximum=    9.5409E-01  at reduced coord.    0.0000    0.5000    0.3646
)     Minimum=    0.0000E+00  at reduced coord.    0.2963    0.0625    0.4583
   Integrated=    9.0000E+01
 Total charge density [el/Bohr^3]
)     Maximum=    9.5409E-01  at reduced coord.    0.0000    0.5000    0.3646
)     Minimum=    0.0000E+00  at reduced coord.    0.2963    0.0625    0.4583
   Integrated=    9.0000E+01
 ETOT 12  -81.359607471432    -5.364E-07 7.533E-05 5.661E-06
 scprqt: <Vxc>= -1.5421322E-01 hartree

 Pulay update with  7 previous iterations:
 mixing of old trial potential: alpha(m:m-4)=   1.29     -0.481      0.267     -0.119      0.807E-02

--- !WARNING
src_file: m_drivexc.F90
src_line: 783
message: |
    Density went too small (lower than xc_denpos) at 315734 points
    and was set to xc_denpos =   1.00E-14. Lowest was  -0.46E-06.
    This might be due to (1) too low boxcut or (2) too low ecut for
     pseudopotential core charge, or (3) too low ecut for estimated initial density.
     Possible workarounds : increase ecut, or define the input variable densty,
     with a value larger than the guess for the decay length, or initialize your,
     density with a preliminary LDA or GGA-PBE if you are using a more exotic xc functional.
...

{SCF_istep: 12 , Vnl|psi>: 408 , wall_time: ' 01:43 [minutes] '} <<< TIME

 ITER STEP NUMBER    13
 newocc: new Fermi energy is      -0.023732 , with nelect=     90.000000, Number of bisection calls: 41
 newocc : inside present(stmbias) section, stmbias=     0.000000E+00
 mkrho: echo density (plane-wave part only)
 Total charge density [el/Bohr^3]
)     Maximum=    9.5406E-01  at reduced coord.    0.0000    0.5000    0.3646
)     Minimum=    0.0000E+00  at reduced coord.    0.2963    0.0625    0.4583
   Integrated=    9.0000E+01
 Total charge density [el/Bohr^3]
)     Maximum=    9.5406E-01  at reduced coord.    0.0000    0.5000    0.3646
)     Minimum=    0.0000E+00  at reduced coord.    0.2963    0.0625    0.4583
   Integrated=    9.0000E+01
 ETOT 13  -81.359608786358    -1.315E-06 4.684E-05 1.896E-07
 scprqt: <Vxc>= -1.5358126E-01 hartree

 Pulay update with  7 previous iterations:
 mixing of old trial potential: alpha(m:m-4)=   1.62     -0.697      0.140     -0.907E-01  0.347E-01

--- !WARNING
src_file: m_drivexc.F90
src_line: 783
message: |
    Density went too small (lower than xc_denpos) at 283187 points
    and was set to xc_denpos =   1.00E-14. Lowest was  -0.11E-06.
    This might be due to (1) too low boxcut or (2) too low ecut for
     pseudopotential core charge, or (3) too low ecut for estimated initial density.
     Possible workarounds : increase ecut, or define the input variable densty,
     with a value larger than the guess for the decay length, or initialize your,
     density with a preliminary LDA or GGA-PBE if you are using a more exotic xc functional.
...

{SCF_istep: 13 , Vnl|psi>: 409 , wall_time: ' 01:44 [minutes] '} <<< TIME

 ITER STEP NUMBER    14
 newocc: new Fermi energy is      -0.023736 , with nelect=     90.000000, Number of bisection calls: 48
 newocc : inside present(stmbias) section, stmbias=     0.000000E+00
 mkrho: echo density (plane-wave part only)
 Total charge density [el/Bohr^3]
)     Maximum=    9.5405E-01  at reduced coord.    0.0000    0.5000    0.3646
)     Minimum=    0.0000E+00  at reduced coord.    0.2963    0.0625    0.4583
   Integrated=    9.0000E+01
 Total charge density [el/Bohr^3]
)     Maximum=    9.5405E-01  at reduced coord.    0.0000    0.5000    0.3646
)     Minimum=    0.0000E+00  at reduced coord.    0.2963    0.0625    0.4583
   Integrated=    9.0000E+01
 ETOT 14  -81.359608921731    -1.354E-07 5.405E-05 9.432E-09
 scprqt: <Vxc>= -1.5326417E-01 hartree

 Pulay update with  7 previous iterations:
 mixing of old trial potential: alpha(m:m-4)=   2.07      -1.60      0.534     -0.241E-01  0.244E-01

--- !WARNING
src_file: m_drivexc.F90
src_line: 783
message: |
    Density went too small (lower than xc_denpos) at 204112 points
    and was set to xc_denpos =   1.00E-14. Lowest was  -0.98E-08.
    This might be due to (1) too low boxcut or (2) too low ecut for
     pseudopotential core charge, or (3) too low ecut for estimated initial density.
     Possible workarounds : increase ecut, or define the input variable densty,
     with a value larger than the guess for the decay length, or initialize your,
     density with a preliminary LDA or GGA-PBE if you are using a more exotic xc functional.
...

{SCF_istep: 14 , Vnl|psi>: 410 , wall_time: ' 01:44 [minutes] '} <<< TIME

 ITER STEP NUMBER    15
 newocc: new Fermi energy is      -0.023736 , with nelect=     90.000000, Number of bisection calls: 47
 newocc : inside present(stmbias) section, stmbias=     0.000000E+00
 mkrho: echo density (plane-wave part only)
 Total charge density [el/Bohr^3]
)     Maximum=    9.5405E-01  at reduced coord.    0.0000    0.5000    0.3646
)     Minimum=    0.0000E+00  at reduced coord.    0.2963    0.0625    0.4583
   Integrated=    9.0000E+01
 Total charge density [el/Bohr^3]
)     Maximum=    9.5405E-01  at reduced coord.    0.0000    0.5000    0.3646
)     Minimum=    0.0000E+00  at reduced coord.    0.2963    0.0625    0.4583
   Integrated=    9.0000E+01
 ETOT 15  -81.359608944869    -2.314E-08 3.583E-05 1.385E-09
 scprqt: <Vxc>= -1.5307213E-01 hartree

 Pulay update with  7 previous iterations:
 mixing of old trial potential: alpha(m:m-4)=  0.912      0.681E-01 -0.116E-01  0.344E-01 -0.653E-02

--- !WARNING
src_file: m_drivexc.F90
src_line: 783
message: |
    Density went too small (lower than xc_denpos) at 228291 points
    and was set to xc_denpos =   1.00E-14. Lowest was  -0.16E-07.
    This might be due to (1) too low boxcut or (2) too low ecut for
     pseudopotential core charge, or (3) too low ecut for estimated initial density.
     Possible workarounds : increase ecut, or define the input variable densty,
     with a value larger than the guess for the decay length, or initialize your,
     density with a preliminary LDA or GGA-PBE if you are using a more exotic xc functional.
...

{SCF_istep: 15 , Vnl|psi>: 399 , wall_time: ' 01:42 [minutes] '} <<< TIME

 ITER STEP NUMBER    16
 newocc: new Fermi energy is      -0.023736 , with nelect=     90.000000, Number of bisection calls: 46
 newocc : inside present(stmbias) section, stmbias=     0.000000E+00
 mkrho: echo density (plane-wave part only)
 Total charge density [el/Bohr^3]
)     Maximum=    9.5405E-01  at reduced coord.    0.0000    0.5000    0.3646
)     Minimum=    0.0000E+00  at reduced coord.    0.2963    0.0625    0.4583
   Integrated=    9.0000E+01
 Total charge density [el/Bohr^3]
)     Maximum=    9.5405E-01  at reduced coord.    0.0000    0.5000    0.3646
)     Minimum=    0.0000E+00  at reduced coord.    0.2963    0.0625    0.4583
   Integrated=    9.0000E+01
 ETOT 16  -81.359608943792     1.076E-09 3.757E-05 3.508E-10
 scprqt: <Vxc>= -1.5307876E-01 hartree

 At SCF step   16, etot is converged : 
  for the second time, diff in etot=  1.076E-09 < toldfe=  1.000E-07
 
 -------------------------------------------------------------------------------------------------
 Ekinetic   = :     3.421856E+01 Ha ,    9.311344E+02 eV
 Evext_l    = :    -2.537867E+03 Ha ,   -6.905888E+04 eV
 Evext_nl   = :     8.160810E+00 Ha ,    2.220669E+02 eV
 Epsp_core  = :     1.283610E+00 Ha ,    3.492881E+01 eV
 Ehartree   = :     1.256650E+03 Ha ,    3.419517E+04 eV
 Exc_ks     = :    -3.408947E+01 Ha ,   -9.276215E+02 eV
 Enn        = :     1.190435E+03 Ha ,    3.239339E+04 eV
 -------------------------------------------------------------------------------------------------
 Etot       = :    -8.120880E+01 Ha ,   -2.209804E+03 eV
 -------------------------------------------------------------------------------------------------

 Cartesian components of stress tensor (hartree/bohr^3)
  sigma(1 1)=  2.20116442E-05  sigma(3 2)=  0.00000000E+00
  sigma(2 2)=  2.34618244E-05  sigma(3 1)= -9.45837930E-08
  sigma(3 3)=  4.90585711E-06  sigma(2 1)=  0.00000000E+00

- Creating HDf5 file with MPI-IO support: runo_GSR.nc
 Integrated electronic density in atomic spheres:
 ------------------------------------------------
 Atom  Sphere_radius  Integrated_density
    1        2.00000          0.84321259
    2        2.00000          1.02745872
    3        2.00000          0.84309426
    4        2.00000          0.84309426
[...]
                       0.000039  0.000012  0.000006  0.000003  0.000000  0.000000
                       0.000000  0.000000  0.000000  0.000000  0.000000  0.000000
                       0.000000  0.000000  0.000000  0.000000  0.000000  0.000000
                       0.000000  0.000000  0.000000  0.000000
                       2.000000  2.000000  2.000000  2.000000  2.000000  2.000000
                       2.000000  2.000000  2.000000  2.000000  2.000000  2.000000
                       2.000000  2.000000  2.000000  2.000000  2.000000  2.000000
                       2.000000  2.000000  2.000000  2.000000  2.000000  2.000000
                       2.000000  2.000000  2.000000  1.999999  1.999996  1.999994
                       1.999935  1.999855  1.999800  1.999524  1.997942  1.993730
                       1.983782  1.956498  1.926170  1.875794  1.644212  1.569245
                       1.322193  1.113970  0.875079  0.664608  0.208055  0.154018
                       0.080145  0.066213  0.025928  0.012309  0.002446  0.000683
                       0.000603  0.000138  0.000023  0.000010  0.000002  0.000000
                       0.000000  0.000000  0.000000  0.000000  0.000000  0.000000
                       0.000000  0.000000  0.000000  0.000000  0.000000  0.000000
                       0.000000  0.000000  0.000000  0.000000  0.000000  0.000000
                       0.000000  0.000000  0.000000  0.000000
                       2.000000  2.000000  2.000000  2.000000  2.000000  2.000000
                       2.000000  2.000000  2.000000  2.000000  2.000000  2.000000
                       2.000000  2.000000  2.000000  2.000000  2.000000  2.000000
                       2.000000  2.000000  2.000000  2.000000  2.000000  2.000000
                       2.000000  2.000000  2.000000  1.999999  1.999996  1.999994
                       1.999935  1.999855  1.999800  1.999524  1.997942  1.993730
                       1.983782  1.956498  1.926170  1.875794  1.644212  1.569244
                       1.322193  1.113970  0.875079  0.664608  0.208055  0.154018
                       0.080145  0.066213  0.025928  0.012309  0.002446  0.000683
                       0.000603  0.000138  0.000023  0.000010  0.000002  0.000000
                       0.000000  0.000000  0.000000  0.000000  0.000000  0.000000
                       0.000000  0.000000  0.000000  0.000000  0.000000  0.000000
                       0.000000  0.000000  0.000000  0.000000  0.000000  0.000000
                       0.000000  0.000000  0.000000  0.000000
                       2.000000  2.000000  2.000000  2.000000  2.000000  2.000000
                       2.000000  2.000000  2.000000  2.000000  2.000000  2.000000
                       2.000000  2.000000  2.000000  2.000000  2.000000  2.000000
                       2.000000  2.000000  2.000000  2.000000  2.000000  2.000000
                       2.000000  2.000000  2.000000  1.999999  1.999997  1.999992
                       1.999914  1.999682  1.998574  1.995581  1.993517  1.989911
                       1.963644  1.944310  1.908103  1.839089  1.764179  1.730903
                       1.554142  1.390377  1.013835  0.750755  0.635883  0.563124
                       0.445827  0.314735  0.207976  0.135976  0.076985  0.050098
                       0.021492  0.005944  0.004071  0.000608  0.000221  0.000077
                       0.000039  0.000012  0.000006  0.000003  0.000000  0.000000
                       0.000000  0.000000  0.000000  0.000000  0.000000  0.000000
                       0.000000  0.000000  0.000000  0.000000  0.000000  0.000000
                       0.000000  0.000000  0.000000  0.000000
                       2.000000  2.000000  2.000000  2.000000  2.000000  2.000000
                       2.000000  2.000000  2.000000  2.000000  2.000000  2.000000
                       2.000000  2.000000  2.000000  2.000000  2.000000  2.000000
                       2.000000  2.000000  2.000000  2.000000  2.000000  2.000000
                       2.000000  2.000000  2.000000  2.000000  2.000000  1.999997
                       1.999978  1.999934  1.999756  1.999521  1.998252  1.996852
                       1.995534  1.991889  1.982086  1.968762  1.949106  1.902399
                       1.816385  1.748901  1.646322  1.263469  0.805663  0.605363
                       0.578662  0.447927  0.284640  0.175330  0.080362  0.033369
                       0.016118  0.008703  0.003095  0.002640  0.000771  0.000191
                       0.000144  0.000086  0.000041  0.000019  0.000004  0.000002
                       0.000001  0.000000  0.000000  0.000000  0.000000  0.000000
                       0.000000  0.000000  0.000000  0.000000  0.000000  0.000000
                       0.000000  0.000000  0.000000  0.000000
                       2.000000  2.000000  2.000000  2.000000  2.000000  2.000000
                       2.000000  2.000000  2.000000  2.000000  2.000000  2.000000
                       2.000000  2.000000  2.000000  2.000000  2.000000  2.000000
                       2.000000  2.000000  2.000000  2.000000  2.000000  2.000000
                       2.000000  1.999999  1.999995  1.999994  1.999987  1.999977
                       1.999929  1.999840  1.999684  1.999275  1.998847  1.997438
                       1.996983  1.988934  1.983048  1.964151  1.938892  1.875088
                       1.785212  1.624031  1.442861  1.422273  1.130300  0.976628
                       0.792280  0.431785  0.341106  0.228244  0.141829  0.051521
                       0.022974  0.017595  0.007441  0.002039  0.000739  0.000325
                       0.000105  0.000015  0.000008  0.000004  0.000001  0.000000
                       0.000000  0.000000  0.000000  0.000000  0.000000  0.000000
                       0.000000  0.000000  0.000000  0.000000  0.000000  0.000000
                       0.000000  0.000000  0.000000  0.000000
                       2.000000  2.000000  2.000000  2.000000  2.000000  2.000000
                       2.000000  2.000000  2.000000  2.000000  2.000000  2.000000
                       2.000000  2.000000  2.000000  2.000000  2.000000  2.000000
                       2.000000  2.000000  2.000000  2.000000  2.000000  2.000000
                       2.000000  2.000000  1.999998  1.999964  1.999862  1.999072
                       1.998241  1.996501  1.991064  1.979254  1.962877  1.941433
                       1.888051  1.784348  1.711792  1.619941  1.475332  1.173243
                       1.082787  0.983174  0.772563  0.670414  0.421577  0.256073
                       0.210637  0.146847  0.118737  0.097432  0.044942  0.036469
                       0.018345  0.011130  0.004927  0.003408  0.000468  0.000293
                       0.000106  0.000039  0.000017  0.000003  0.000001  0.000001
                       0.000000  0.000000  0.000000  0.000000  0.000000  0.000000
                       0.000000  0.000000  0.000000  0.000000  0.000000  0.000000
                       0.000000  0.000000  0.000000  0.000000
                       2.000000  2.000000  2.000000  2.000000  2.000000  2.000000
                       2.000000  2.000000  2.000000  2.000000  2.000000  2.000000
                       2.000000  2.000000  2.000000  2.000000  2.000000  2.000000
                       2.000000  2.000000  2.000000  2.000000  2.000000  2.000000
                       2.000000  2.000000  2.000000  1.999998  1.999930  1.999858
                       1.997903  1.995572  1.980507  1.960834  1.914661  1.823709
                       1.798905  1.415311  1.277304  1.052963  0.908490  0.740057
                       0.364716  0.252979  0.179934  0.090987  0.079918  0.025987
                       0.014058  0.012500  0.008188  0.004698  0.002778  0.001454
                       0.000450  0.000351  0.000189  0.000032  0.000027  0.000017
                       0.000009  0.000006  0.000002  0.000001  0.000000  0.000000
                       0.000000  0.000000  0.000000  0.000000  0.000000  0.000000
                       0.000000  0.000000  0.000000  0.000000  0.000000  0.000000
                       0.000000  0.000000  0.000000  0.000000
                       2.000000  2.000000  2.000000  2.000000  2.000000  2.000000
                       2.000000  2.000000  2.000000  2.000000  2.000000  2.000000
                       2.000000  2.000000  2.000000  2.000000  2.000000  2.000000
                       2.000000  2.000000  2.000000  2.000000  2.000000  2.000000
                       2.000000  2.000000  2.000000  1.999998  1.999930  1.999858
                       1.997903  1.995572  1.980507  1.960834  1.914661  1.823709
                       1.798905  1.415311  1.277304  1.052963  0.908490  0.740057
                       0.364716  0.252979  0.179934  0.090987  0.079918  0.025987
                       0.014058  0.012500  0.008188  0.004698  0.002778  0.001454
                       0.000450  0.000351  0.000189  0.000032  0.000027  0.000017
                       0.000009  0.000006  0.000002  0.000001  0.000000  0.000000
                       0.000000  0.000000  0.000000  0.000000  0.000000  0.000000
                       0.000000  0.000000  0.000000  0.000000  0.000000  0.000000
                       0.000000  0.000000  0.000000  0.000000
                       2.000000  2.000000  2.000000  2.000000  2.000000  2.000000
                       2.000000  2.000000  2.000000  2.000000  2.000000  2.000000
                       2.000000  2.000000  2.000000  2.000000  2.000000  2.000000
                       2.000000  2.000000  2.000000  2.000000  2.000000  2.000000
                       2.000000  2.000000  1.999998  1.999964  1.999862  1.999072
                       1.998241  1.996501  1.991064  1.979254  1.962876  1.941433
                       1.888051  1.784347  1.711793  1.619941  1.475331  1.173243
                       1.082786  0.983174  0.772563  0.670414  0.421577  0.256073
                       0.210637  0.146847  0.118737  0.097432  0.044942  0.036469
                       0.018345  0.011130  0.004927  0.003408  0.000468  0.000293
                       0.000106  0.000039  0.000017  0.000003  0.000001  0.000001
                       0.000000  0.000000  0.000000  0.000000  0.000000  0.000000
                       0.000000  0.000000  0.000000  0.000000  0.000000  0.000000
                       0.000000  0.000000  0.000000  0.000000
                       2.000000  2.000000  2.000000  2.000000  2.000000  2.000000
                       2.000000  2.000000  2.000000  2.000000  2.000000  2.000000
                       2.000000  2.000000  2.000000  2.000000  2.000000  2.000000
                       2.000000  2.000000  2.000000  2.000000  2.000000  2.000000
                       2.000000  1.999999  1.999995  1.999994  1.999987  1.999977
                       1.999929  1.999840  1.999684  1.999275  1.998847  1.997438
                       1.996983  1.988934  1.983048  1.964151  1.938892  1.875088
                       1.785211  1.624031  1.442861  1.422274  1.130300  0.976628
                       0.792279  0.431785  0.341106  0.228244  0.141829  0.051521
                       0.022974  0.017595  0.007441  0.002039  0.000739  0.000325
                       0.000105  0.000015  0.000008  0.000004  0.000001  0.000000
                       0.000000  0.000000  0.000000  0.000000  0.000000  0.000000
                       0.000000  0.000000  0.000000  0.000000  0.000000  0.000000
                       0.000000  0.000000  0.000000  0.000000
           occopt           7
           prtden           0
            prtwf           0
           shiftk      5.00000000E-01  5.00000000E-01  5.00000000E-01
          spgroup           6
           strten      2.1947760448E-05  2.3393783236E-05  3.3678122824E-06
                       0.0000000000E+00 -9.6452163780E-08  0.0000000000E+00
           symrel      1  0  0   0  1  0   0  0  1       1  0  0   0 -1  0   0  0  1
            tnons      0.0000000  0.0000000  0.0000000     0.0000000 -0.0000000  0.0000000
           toldfe      1.00000000E-07 Hartree
          tolmxde      1.00000000E-04 Hartree
           tolmxf      0.00000000E+00
           tsmear      3.00000000E-02 Hartree
            typat      1  1  1  1  1  1  1  1  1  1  1  1  1  1  1  1  1  1  1  1
                       1  1  1  1  1  1  1  1  2
              wtk        0.05556    0.05556    0.05556    0.05556    0.05556    0.05556
                         0.05556    0.05556    0.05556    0.05556    0.05556    0.05556
                         0.05556    0.05556    0.05556    0.05556    0.05556    0.05556
           xangst     -9.4699965718E-08 -6.0326735376E-11  1.4059608299E+01
                      -9.4699965718E-08  2.8646172650E+00  1.4059608299E+01
                       2.4808312077E+00  1.4323086325E+00  1.4059608299E+01
                       2.4808312077E+00  4.2969258975E+00  1.4059608299E+01
                       8.2694360961E-01  1.4323086325E+00  1.1698811465E+01
                       8.2694360961E-01  4.2969258975E+00  1.1698811465E+01
                       3.3077749120E+00  2.8646172650E+00  1.1698811465E+01
                       3.3077749120E+00 -6.0326735376E-11  1.1698811465E+01
                       1.6538873139E+00 -6.0326735376E-11  9.3638499357E+00
                       1.6538873139E+00  2.8646172650E+00  9.3638499357E+00
                       4.1347186163E+00  1.4323086325E+00  9.3638499357E+00
                       4.1347186163E+00  4.2969258975E+00  9.3638499357E+00
                      -9.4699965718E-08 -6.0326735376E-11  7.0202400025E+00
                      -9.4699965718E-08  2.8646172650E+00  7.0202400025E+00
                       2.4808312077E+00  1.4323086325E+00  7.0202400025E+00
                       2.4808312077E+00  4.2969258975E+00  7.0202400025E+00
                       8.2694360961E-01  1.4323086325E+00  4.6779000867E+00
                       8.2694360961E-01  4.2969258975E+00  4.6779000867E+00
                       3.3077749120E+00 -6.0326735376E-11  4.6779000867E+00
                       3.3077749120E+00  2.8646172650E+00  4.6779000867E+00
                       1.6538873139E+00 -6.0326735376E-11  2.3389500433E+00
                       1.6538873139E+00  2.8646172650E+00  2.3389500433E+00
                       4.1347186163E+00  1.4323086325E+00  2.3389500433E+00
                       4.1347186163E+00  4.2969258975E+00  2.3389500433E+00
                      -9.4699965718E-08 -6.0326735376E-11  1.0000000001E-03
                      -9.4699965718E-08  2.8646172650E+00  1.0000000001E-03
                       2.4808312077E+00  1.4323086325E+00  1.0000000001E-03
                       2.4808312077E+00  4.2969258975E+00  1.0000000001E-03
                      -9.4699965718E-08  2.8646172650E+00  1.5743034398E+01
            xcart     -1.7895700000E-07 -1.1400100835E-10  2.6568809221E+01
                      -1.7895700000E-07  5.4133421064E+00  2.6568809221E+01
                       4.6880915645E+00  2.7066710532E+00  2.6568809221E+01
                       4.6880915645E+00  8.1200131596E+00  2.6568809221E+01
                       1.5626969495E+00  2.7066710532E+00  2.2107549749E+01
                       1.5626969495E+00  8.1200131596E+00  2.2107549749E+01
                       6.2507886929E+00  5.4133421064E+00  2.2107549749E+01
                       6.2507886929E+00 -1.1400100835E-10  2.2107549749E+01
                       3.1253940779E+00 -1.1400100835E-10  1.7695111928E+01
                       3.1253940779E+00  5.4133421064E+00  1.7695111928E+01
                       7.8134858214E+00  2.7066710532E+00  1.7695111928E+01
                       7.8134858214E+00  8.1200131596E+00  1.7695111928E+01
                      -1.7895700000E-07 -1.1400100835E-10  1.3266330992E+01
                      -1.7895700000E-07  5.4133421064E+00  1.3266330992E+01
                       4.6880915645E+00  2.7066710532E+00  1.3266330992E+01
                       4.6880915645E+00  8.1200131596E+00  1.3266330992E+01
                       1.5626969495E+00  2.7066710532E+00  8.8399500409E+00
                       1.5626969495E+00  8.1200131596E+00  8.8399500409E+00
                       6.2507886929E+00 -1.1400100835E-10  8.8399500409E+00
                       6.2507886929E+00  5.4133421064E+00  8.8399500409E+00
                       3.1253940779E+00 -1.1400100835E-10  4.4199750203E+00
                       3.1253940779E+00  5.4133421064E+00  4.4199750203E+00
                       7.8134858214E+00  2.7066710532E+00  4.4199750203E+00
                       7.8134858214E+00  8.1200131596E+00  4.4199750203E+00
                      -1.7895700000E-07 -1.1400100835E-10  1.8897261330E-03
                      -1.7895700000E-07  5.4133421064E+00  1.8897261330E-03
                       4.6880915645E+00  2.7066710532E+00  1.8897261330E-03
                       4.6880915645E+00  8.1200131596E+00  1.8897261330E-03
                      -1.7895700000E-07  5.4133421064E+00  2.9750023513E+01
             xred     -1.9086337234E-08 -1.0529632721E-11  3.1929199395E-01
                      -1.9086337234E-08  4.9999999999E-01  3.1929199395E-01
                       4.9999998091E-01  2.4999999999E-01  3.1929199395E-01
                       4.9999998091E-01  7.4999999998E-01  3.1929199395E-01
                       1.6666663485E-01  2.4999999999E-01  2.6567858507E-01
                       1.6666663485E-01  7.4999999998E-01  2.6567858507E-01
                       6.6666663485E-01  4.9999999999E-01  2.6567858507E-01
                       6.6666663485E-01 -1.0529632721E-11  2.6567858507E-01
                       3.3333328878E-01 -1.0529632721E-11  2.1265189281E-01
                       3.3333328878E-01  4.9999999999E-01  2.1265189281E-01
                       8.3333328878E-01  2.4999999999E-01  2.1265189281E-01
                       8.3333328878E-01  7.4999999998E-01  2.1265189281E-01
                      -1.9086337234E-08 -1.0529632721E-11  1.5942879636E-01
                      -1.9086337234E-08  4.9999999999E-01  1.5942879636E-01
                       4.9999998091E-01  2.4999999999E-01  1.5942879636E-01
                       4.9999998091E-01  7.4999999998E-01  1.5942879636E-01
                       1.6666663485E-01  2.4999999999E-01  1.0623454185E-01
                       1.6666663485E-01  7.4999999998E-01  1.0623454185E-01
                       6.6666663485E-01 -1.0529632721E-11  1.0623454185E-01
                       6.6666663485E-01  4.9999999999E-01  1.0623454185E-01
                       3.3333328878E-01 -1.0529632721E-11  5.3117270922E-02
                       3.3333328878E-01  4.9999999999E-01  5.3117270922E-02
                       8.3333328878E-01  2.4999999999E-01  5.3117270922E-02
                       8.3333328878E-01  7.4999999998E-01  5.3117270922E-02
                      -1.9086337234E-08 -1.0529632721E-11  2.2709878339E-05
                      -1.9086337234E-08  4.9999999999E-01  2.2709878339E-05
                       4.9999998091E-01  2.4999999999E-01  2.2709878339E-05
                       4.9999998091E-01  7.4999999998E-01  2.2709878339E-05
                      -1.9086337234E-08  4.9999999999E-01  3.5752239585E-01
            znucl       13.00000    8.00000

================================================================================
  
 Proc.   0 individual time (sec): cpu=       4603.0  wall=       4606.5

 Calculation completed.
.Delivered   0 WARNINGs and   3 COMMENTs to log file.

--- !FinalSummary
program: abinit
version: 9.10.3
start_datetime: Mon Jun 02 00:49:37 2025
end_datetime: Mon Jun 02 02:06:23 2025
overall_cpu_time:      110502.3
overall_wall_time:      110551.7
exit_requested_by_user: no 
timelimit: 0
pseudos: 
    Al  : 57224185a50eb565dff7432e4aa35376
    O   : abbcf0645b4a6d69360cd16bcad3e730
usepaw: 0
mpi_procs: 24
omp_threads: 1
num_warnings: 0
num_comments: 3
...
